
14	atoms
13	bonds
22	angles
26	dihedrals

9	atom types
9	bond types
14	angle types
8	dihedral types

-300.0 300.0 xlo xhi
-300.0 300.0 ylo yhi
-300.0 300.0 zlo zhi

Masses

1	12.01	#c3
2	1.008	#hc
3	12.01	#c
4	14.01	#n4
5	1.008	#hn
6	1.008	#hx
7	16.0	#oh
8	1.008	#ho
9	16.0	#o

Pair Coeffs

1	0.1078	3.39770953124	#c3
2	0.0208	2.60017699876	#hc
3	0.0988	3.31521230994	#c
4	3.8748	2.49950544361	#n4
5	0.01	1.10649620793	#hn
6	0.0208	1.88745802425	#hx
7	0.093	3.24287133403	#oh
8	0.0047	0.537924646013	#ho
9	0.1463	3.04812087425	#o

Bond Coeffs

1	232.52	1.538	#c3-c3
2	375.92	1.097	#c3-hc
3	243.22	1.524	#c-c3
4	222.58	1.511	#c3-n4
5	386.49	1.091	#c3-hx
6	383.13	1.351	#c-oh
7	652.57	1.218	#c-o
8	482.87	1.03	#hn-n4
9	563.51	0.973	#ho-oh

Angle Coeffs

1	46.816	109.8	#c3-c3-hc
2	38.96	107.58	#hc-c3-hc
3	65.307	111.04	#c-c3-c3
4	80.976	114.21	#c3-c3-n4
5	82.611	110.73	#c-c3-n4
6	46.677	110.56	#c3-c3-hx
7	47.419	108.85	#c-c3-hx
8	60.076	108.01	#hx-c3-n4
9	85.803	112.73	#c3-c-oh
10	84.552	123.2	#c3-c-o
11	115.745	122.1	#o-c-oh
12	46.193	110.11	#c3-n4-hn
13	40.02	108.3	#hn-n4-hn
14	51.617	106.55	#c-oh-ho

Dihedral Coeffs

1	1	0.155555555556	3	0.0	#X-c3-c3-X
2	1	0.0	2	180.0	#X-c-c3-X
3	1	0.27	2	180.0	#o-c-c3-c3
4	3	0.03	2	180.0	0.55	3	180.0	0.74	1	0.0	#c3-c3-c-o
5	1	0.155555555556	3	0.0	#X-c3-n4-X
6	1	0.109	3	0.0	#hn-n4-c3-hx
7	1	1.78	2	180.0	#ho-oh-c-c3
8	2	2.3	2	180.0	1.9	1	0.0	#ho-oh-c-o




Atoms

1	1	1	-0.253966	-4.848	-0.499	0.423
2	1	1	0.144649	-3.625	0.085	-0.272
3	1	2	0.112475	-4.896	-1.555	0.198
4	1	2	0.112475	-5.758	-0.03	0.066
5	1	2	0.112475	-4.785	-0.387	1.5
6	1	3	0.642176	-2.332	-0.621	0.124
7	1	4	-0.313241	-3.507	1.565	0.02
8	1	5	0.31465	-3.431	1.74	1.012
9	1	5	0.31465	-4.317	2.064	-0.32
10	1	6	0.103395	-3.719	0.006	-1.348
11	1	7	-0.630707	-1.357	0.239	0.374
12	1	8	0.497566	-0.551	-0.221	0.588
13	1	9	-0.471247	-2.249	-1.791	0.167
14	1	5	0.31465	-2.682	1.962	-0.408


Bonds

1	1	1	2
2	2	1	3
3	2	1	4
4	2	1	5
5	3	2	6
6	4	2	7
7	5	2	10
8	6	6	11
9	7	6	13
10	8	7	8
11	8	7	9
12	8	7	14
13	9	11	12


Angles

1	1	3	1	2
2	1	4	1	2
3	2	4	1	3
4	1	5	1	2
5	2	5	1	3
6	2	5	1	4
7	3	6	2	1
8	4	7	2	1
9	5	7	2	6
10	6	10	2	1
11	7	10	2	6
12	8	10	2	7
13	9	11	6	2
14	10	13	6	2
15	11	13	6	11
16	12	8	7	2
17	12	9	7	2
18	13	9	7	8
19	12	14	7	2
20	13	14	7	8
21	13	14	7	9
22	14	12	11	6


Dihedrals

1	1	6	2	1	3
2	1	6	2	1	4
3	1	6	2	1	5
4	1	7	2	1	3
5	1	7	2	1	4
6	1	7	2	1	5
7	1	10	2	1	3
8	1	10	2	1	4
9	1	10	2	1	5
10	2	11	6	2	1
11	2	11	6	2	7
12	2	11	6	2	10
13	3	13	6	2	1
14	2	13	6	2	7
15	2	13	6	2	10
16	5	8	7	2	1
17	5	8	7	2	6
18	6	8	7	2	10
19	5	9	7	2	1
20	5	9	7	2	6
21	6	9	7	2	10
22	5	14	7	2	1
23	5	14	7	2	6
24	6	14	7	2	10
25	7	12	11	6	2
26	8	12	11	6	13
