
148	atoms
151	bonds
267	angles
399	dihedrals

15	atom types
24	bond types
51	angle types
39	dihedral types

-300.0 300.0 xlo xhi
-300.0 300.0 ylo yhi
-300.0 300.0 zlo zhi

Masses

1	12.01	#ca
2	1.008	#ha
3	12.01	#c3
4	1.008	#hc
5	12.01	#c
6	16.0	#oh
7	16.0	#o
8	14.01	#n
9	1.008	#h1
10	16.0	#os
11	1.008	#ho
12	1.008	#hn
13	12.01	#c2
14	14.01	#nh
15	14.01	#n2

Pair Coeffs

1	0.0988	3.31521230994	#ca
2	0.0161	2.62547852236	#ha
3	0.1078	3.39770953124	#c3
4	0.0208	2.60017699876	#hc
5	0.0988	3.31521230994	#c
6	0.093	3.24287133403	#oh
7	0.1463	3.04812087425	#o
8	0.1636	3.18086478325	#n
9	0.0208	2.42199725514	#h1
10	0.0726	3.15609779888	#os
11	0.0047	0.537924646013	#ho
12	0.01	1.10649620793	#hn
13	0.0988	3.31521230994	#c2
14	0.215	3.18995195017	#nh
15	0.0941	3.38416787073	#n2

Bond Coeffs

1	378.57	1.398	#ca-ca
2	395.72	1.086	#ca-ha
3	250.32	1.516	#c3-ca
4	232.52	1.538	#c3-c3
5	375.92	1.097	#c3-hc
6	243.22	1.524	#c-c3
7	263.77	1.462	#c3-n
8	375.92	1.097	#c3-h1
9	383.13	1.351	#c-oh
10	652.57	1.218	#c-o
11	563.51	0.973	#ho-oh
12	356.21	1.379	#c-n
13	527.31	1.013	#hn-n
14	372.94	1.358	#c-os
15	255.56	1.51	#c2-c3
16	481.83	1.334	#c2-c2
17	345.39	1.387	#c2-nh
18	392.18	1.088	#c2-ha
19	529.46	1.012	#hn-nh
20	365.55	1.364	#ca-oh
21	259.91	1.466	#c3-n2
22	518.67	1.282	#c2-n2
23	501.09	1.023	#hn-n2
24	261.84	1.464	#c3-nh

Angle Coeffs

1	68.767	120.02	#ca-ca-ca
2	48.68	119.88	#ca-ca-ha
3	65.583	120.77	#c3-ca-ca
4	65.183	112.07	#c3-c3-ca
5	47.281	110.47	#ca-c3-hc
6	46.816	109.8	#c3-c3-hc
7	38.96	107.58	#hc-c3-hc
8	65.307	111.04	#c-c3-c3
9	83.161	111.61	#c3-c3-n
10	46.868	109.56	#c3-c3-h1
11	84.54	109.06	#c-c3-n
12	47.531	108.22	#c-c3-h1
13	61.544	108.88	#h1-c3-n
14	85.803	112.73	#c3-c-oh
15	84.552	123.2	#c3-c-o
16	115.745	122.1	#o-c-oh
17	51.617	106.55	#c-oh-ho
18	65.252	120.69	#c-n-c3
19	46.147	117.68	#c3-n-hn
20	48.691	117.55	#c-n-hn
21	115.486	109.22	#n-c-os
22	84.266	115.18	#c3-c-n
23	86.419	110.72	#c3-c-os
24	64.888	111.51	#c3-c3-c3
25	38.802	108.46	#h1-c3-h1
26	64.88	115.64	#c3-n-c3
27	65.459	111.56	#c2-c3-c3
28	47.475	110.36	#c2-c3-hc
29	66.132	123.63	#c2-c2-c3
30	84.195	116.21	#c3-c2-nh
31	86.653	124.99	#c2-c2-nh
32	50.363	120.43	#c2-c2-ha
33	62.169	116.68	#ha-c2-nh
34	65.835	124.73	#c2-nh-c2
35	48.954	115.09	#c2-nh-hn
36	112.122	112.82	#nh-c2-nh
37	87.211	119.9	#ca-ca-oh
38	50.712	108.58	#ca-oh-ho
39	84.123	108.8	#c3-c3-n2
40	61.133	109.81	#h1-c3-n2
41	68.517	115.3	#c2-n2-c3
42	45.854	118.4	#c3-n2-hn
43	53.185	110.8	#c2-n2-hn
44	120.816	113.82	#n2-c2-n2
45	38.294	120.0	#hn-n2-hn
46	84.373	109.35	#c-c3-nh
47	83.541	110.46	#c3-c3-nh
48	61.213	109.79	#h1-c3-nh
49	46.421	115.99	#c3-nh-hn
50	39.519	115.12	#hn-nh-hn
51	47.411	108.77	#c-c3-hc

Dihedral Coeffs

1	1	3.625	2	180.0	#X-ca-ca-X
2	1	0.245	2	180.0	#c3-c3-ca-ca
3	1	0.0	2	180.0	#hc-c3-ca-ca
4	1	0.1	3	0.0	#ca-c3-c3-c
5	1	0.21	3	0.0	#ca-c3-c3-n
6	1	0.155555555556	3	0.0	#X-c3-c3-X
7	1	0.0	2	180.0	#X-c-c3-X
8	1	0.27	2	180.0	#o-c-c3-c3
9	3	0.03	2	180.0	0.55	3	180.0	0.74	1	0.0	#c3-c3-c-o
10	2	0.8	1	0.0	0.08	3	180.0	#h1-c3-c-o
11	3	0.1	4	180.0	0.17	3	0.0	1.02	1	180.0	#c-n-c3-c3
12	3	0.65	4	180.0	0.03	3	180.0	2.26	1	0.0	#c3-c3-n-c
13	1	0.0	2	0.0	#X-c3-n-X
14	2	0.39	2	180.0	0.64	1	0.0	#c-c3-n-c
15	1	0.0	2	180.0	#h1-c3-n-c
16	1	1.78	2	180.0	#ho-oh-c-c3
17	2	2.3	2	180.0	1.9	1	0.0	#ho-oh-c-o
18	1	2.5	2	180.0	#X-c-n-X
19	2	0.26	2	180.0	0.5	1	0.0	#c3-n-c-c3
20	2	0.0	4	180.0	0.71	2	180.0	#n-c-c3-c3
21	2	0.1	1	180.0	2.12	2	180.0	#n-c-c3-n
22	1	0.1	3	0.0	#c-c3-c3-c3
23	1	0.1	3	0.0	#n-c3-c3-c3
24	3	0.13	3	0.0	0.29	2	180.0	0.11	1	0.0	#c3-c3-c3-c3
25	1	0.08	3	0.0	#hc-c3-c3-c3
26	1	0.08	3	0.0	#c3-c3-c3-hc
27	1	0.12	3	0.0	#hc-c3-c3-hc
28	1	0.0	2	0.0	#X-c2-c3-X
29	2	0.36	3	180.0	1.47	1	0.0	#hc-c3-c2-c2
30	1	6.65	2	180.0	#X-c2-c2-X
31	1	3.14	2	180.0	#c2-nh-c2-c3
32	1	0.675	2	180.0	#X-c2-nh-X
33	1	0.98	2	180.0	#c2-nh-c2-c2
34	1	0.835	2	180.0	#ho-oh-ca-ca
35	1	0.0	3	0.0	#X-c3-n2-X
36	1	0.165	3	180.0	#h1-c3-n2-c2
37	1	4.15	2	180.0	#X-c2-n2-X
38	1	0.0	2	0.0	#X-c3-nh-X
39	2	0.83	1	0.0	0.04	3	180.0	#o-c-c3-hc




Atoms

1	1	1	0.013513513513513514	8.381	6.271	1.33
2	1	1	0.013513513513513514	9.271	6.444	2.393
3	1	1	0.013513513513513514	10.254	7.436	2.33
4	1	1	0.013513513513513514	10.354	8.266	1.198
5	1	1	0.013513513513513514	9.451	8.086	0.136
6	1	1	0.013513513513513514	8.47	7.092	0.203
7	1	2	0.013513513513513514	9.506	8.713	-0.746
8	1	2	0.013513513513513514	7.778	6.959	-0.618
9	1	2	0.013513513513513514	10.933	7.558	3.164
10	1	2	0.013513513513513514	7.62	5.503	1.381
11	1	2	0.013513513513513514	9.2	5.809	3.266
12	1	3	0.013513513513513514	11.414	9.341	1.125
13	1	3	0.013513513513513514	12.845	8.769	1.171
14	1	4	0.013513513513513514	11.268	10.036	1.98
15	1	4	0.013513513513513514	11.297	9.935	0.191
16	1	5	0.013513513513513514	13.092	7.829	0.021
17	1	6	0.013513513513513514	13.423	6.543	0.263
18	1	7	0.013513513513513514	12.974	8.222	-1.129
19	1	8	0.013513513513513514	13.803	9.868	1.126
20	1	9	0.013513513513513514	12.958	8.193	2.114
21	1	5	0.013513513513513514	14.661	10.147	2.149
22	1	10	0.013513513513513514	14.678	9.445	3.151
23	1	3	0.013513513513513514	15.601	11.336	2.098
24	1	3	0.013513513513513514	14.828	12.651	1.94
25	1	3	0.013513513513513514	15.901	13.562	1.397
26	1	4	0.013513513513513514	14.325	13.004	2.866
27	1	4	0.013513513513513514	14.065	12.558	1.136
28	1	3	0.013513513513513514	16.595	12.664	0.374
29	1	4	0.013513513513513514	16.614	13.756	2.232
30	1	4	0.013513513513513514	15.553	14.538	0.996
31	1	8	0.013513513513513514	16.531	11.345	0.978
32	1	9	0.013513513513513514	17.629	13.049	0.251
33	1	9	0.013513513513513514	16.061	12.631	-0.601
34	1	9	0.013513513513513514	16.212	11.36	3.031
35	1	11	0.013513513513513514	13.581	5.919	-0.459
36	1	12	0.013513513513513514	13.808	10.47	0.288
37	1	5	0.013513513513513514	17.315	10.28	0.614
38	1	10	0.013513513513513514	17.204	9.219	1.213
39	1	3	0.013513513513513514	18.371	10.365	-0.488
40	1	3	0.013513513513513514	18.072	9.343	-1.609
41	1	13	0.013513513513513514	16.791	9.647	-2.327
42	1	4	0.013513513513513514	18.046	8.314	-1.188
43	1	4	0.013513513513513514	18.866	9.367	-2.38
44	1	13	0.013513513513513514	15.707	8.807	-2.465
45	1	14	0.013513513513513514	14.777	9.446	-3.198
46	1	13	0.013513513513513514	15.296	10.654	-3.49
47	1	14	0.013513513513513514	16.529	10.8	-2.971
48	1	12	0.013513513513513514	17.149	11.636	-3.058
49	1	2	0.013513513513513514	15.606	7.804	-2.072
50	1	2	0.013513513513513514	14.788	11.409	-4.074
51	1	8	0.013513513513513514	19.688	10.121	0.097
52	1	9	0.013513513513513514	18.389	11.375	-0.942
53	1	5	0.013513513513513514	20.854	10.245	-0.607
54	1	12	0.013513513513513514	19.728	9.887	1.098
55	1	10	0.013513513513513514	20.822	10.616	-1.772
56	1	3	0.013513513513513514	22.233	10.001	0.0
57	1	3	0.013513513513513514	22.268	9.364	1.427
58	1	3	0.013513513513513514	21.684	7.919	1.388
59	1	3	0.013513513513513514	21.544	7.272	2.768
60	1	4	0.013513513513513514	22.321	7.272	0.746
61	1	4	0.013513513513513514	20.673	7.914	0.94
62	1	4	0.013513513513513514	21.082	6.268	2.656
63	1	4	0.013513513513513514	20.889	7.892	3.416
64	1	4	0.013513513513513514	22.526	7.131	3.26
65	1	3	0.013513513513513514	23.72	9.329	1.954
66	1	4	0.013513513513513514	21.682	10.003	2.123
67	1	4	0.013513513513513514	23.768	8.933	2.987
68	1	4	0.013513513513513514	24.15	10.351	2.002
69	1	4	0.013513513513513514	24.361	8.704	1.296
70	1	8	0.013513513513513514	22.92	11.286	0.001
71	1	9	0.013513513513513514	22.751	9.276	-0.666
72	1	5	0.013513513513513514	24.053	11.53	-0.719
73	1	3	0.013513513513513514	24.685	12.924	-0.692
74	1	3	0.013513513513513514	23.673	13.915	-1.337
75	1	1	0.013513513513513514	24.027	15.371	-1.191
76	1	4	0.013513513513513514	22.668	13.801	-0.878
77	1	4	0.013513513513513514	23.573	13.642	-2.411
78	1	1	0.013513513513513514	24.073	15.961	0.084
79	1	1	0.013513513513513514	24.401	17.313	0.224
80	1	1	0.013513513513513514	24.684	18.09	-0.904
81	1	1	0.013513513513513514	24.634	17.508	-2.179
82	1	1	0.013513513513513514	24.304	16.157	-2.323
83	1	6	0.013513513513513514	25.002	19.391	-0.751
84	1	11	0.013513513513513514	25.206	19.963	-1.504
85	1	10	0.013513513513513514	24.562	10.63	-1.373
86	1	12	0.013513513513513514	22.517	12.043	0.574
87	1	2	0.013513513513513514	23.856	15.374	0.967
88	1	2	0.013513513513513514	24.85	18.1	-3.059
89	1	2	0.013513513513513514	24.272	15.724	-3.315
90	1	2	0.013513513513513514	24.436	17.756	1.212
91	1	8	0.013513513513513514	25.968	12.935	-1.407
92	1	9	0.013513513513513514	24.865	13.152	0.381
93	1	5	0.013513513513513514	26.895	13.935	-1.32
94	1	10	0.013513513513513514	26.677	14.893	-0.595
95	1	3	0.013513513513513514	28.235	13.944	-2.069
96	1	3	0.013513513513513514	28.609	12.737	-3.008
97	1	3	0.013513513513513514	28.782	11.384	-2.281
98	1	4	0.013513513513513514	29.49	11.481	-1.439
99	1	4	0.013513513513513514	29.194	10.633	-2.988
100	1	4	0.013513513513513514	27.861	10.952	-1.862
101	1	3	0.013513513513513514	27.697	12.621	-4.243
102	1	4	0.013513513513513514	29.607	12.958	-3.437
103	1	4	0.013513513513513514	26.646	12.377	-4.013
104	1	4	0.013513513513513514	28.083	11.829	-4.92
105	1	4	0.013513513513513514	27.706	13.579	-4.804
106	1	8	0.013513513513513514	29.311	14.186	-1.106
107	1	9	0.013513513513513514	28.169	14.852	-2.711
108	1	12	0.013513513513513514	26.185	12.129	-1.985
109	1	5	0.013513513513513514	30.546	14.641	-1.472
110	1	12	0.013513513513513514	29.121	14.048	-0.1
111	1	3	0.013513513513513514	31.632	14.887	-0.434
112	1	3	0.013513513513513514	32.821	13.928	-0.71
113	1	10	0.013513513513513514	30.8	14.864	-2.649
114	1	3	0.013513513513513514	32.377	12.464	-0.549
115	1	4	0.013513513513513514	33.665	14.112	-0.015
116	1	4	0.013513513513513514	33.186	14.105	-1.746
117	1	3	0.013513513513513514	33.409	11.448	-1.043
118	1	4	0.013513513513513514	31.483	12.292	-1.17
119	1	4	0.013513513513513514	32.118	12.272	0.515
120	1	15	0.013513513513513514	32.879	10.099	-0.897
121	1	9	0.013513513513513514	34.361	11.547	-0.477
122	1	9	0.013513513513513514	33.593	11.658	-2.12
123	1	13	0.013513513513513514	33.474	9.034	-1.34
124	1	15	0.013513513513513514	34.716	9.099	-2.033
125	1	15	0.013513513513513514	32.863	7.764	-1.149
126	1	12	0.013513513513513514	31.964	7.677	-0.653
127	1	12	0.013513513513513514	33.313	6.909	-1.506
128	1	12	0.013513513513513514	35.202	9.987	-2.214
129	1	12	0.013513513513513514	35.146	8.234	-2.392
130	1	8	0.013513513513513514	32.044	16.286	-0.499
131	1	9	0.013513513513513514	31.226	14.685	0.582
132	1	5	0.013513513513513514	32.896	16.869	0.39
133	1	12	0.013513513513513514	31.642	16.887	-1.237
134	1	3	0.013513513513513514	33.233	18.343	0.233
135	1	14	0.013513513513513514	31.982	19.108	0.276
136	1	3	0.013513513513513514	34.235	18.838	1.31
137	1	9	0.013513513513513514	33.701	18.46	-0.769
138	1	5	0.013513513513513514	34.742	20.246	1.108
139	1	4	0.013513513513513514	35.128	18.177	1.304
140	1	4	0.013513513513513514	33.755	18.77	2.31
141	1	6	0.013513513513513514	35.602	20.765	2.01
142	1	7	0.013513513513513514	34.412	20.913	0.138
143	1	10	0.013513513513513514	33.37	16.218	1.311
144	1	12	0.013513513513513514	32.134	20.111	0.03
145	1	12	0.013513513513513514	31.551	19.05	1.228
146	1	11	0.013513513513513514	35.956	21.66	1.913
147	1	12	0.013513513513513514	13.843	9.081	-3.488
148	1	12	0.013513513513513514	31.969	9.982	-0.424


Bonds

1	1	1	2
2	1	1	6
3	2	1	10
4	1	2	3
5	2	2	11
6	1	3	4
7	2	3	9
8	1	4	5
9	3	4	12
10	1	5	6
11	2	5	7
12	2	6	8
13	4	12	13
14	5	12	14
15	5	12	15
16	6	13	16
17	7	13	19
18	8	13	20
19	9	16	17
20	10	16	18
21	11	17	35
22	12	19	21
23	13	19	36
24	14	21	22
25	6	21	23
26	4	23	24
27	7	23	31
28	8	23	34
29	4	24	25
30	5	24	26
31	5	24	27
32	4	25	28
33	5	25	29
34	5	25	30
35	7	28	31
36	8	28	32
37	8	28	33
38	12	31	37
39	14	37	38
40	6	37	39
41	4	39	40
42	7	39	51
43	8	39	52
44	15	40	41
45	5	40	42
46	5	40	43
47	16	41	44
48	17	41	47
49	17	44	45
50	18	44	49
51	17	45	46
52	19	45	147
53	17	46	47
54	18	46	50
55	19	47	48
56	12	51	53
57	13	51	54
58	14	53	55
59	6	53	56
60	4	56	57
61	7	56	70
62	8	56	71
63	4	57	58
64	4	57	65
65	5	57	66
66	4	58	59
67	5	58	60
68	5	58	61
69	5	59	62
70	5	59	63
71	5	59	64
72	5	65	67
73	5	65	68
74	5	65	69
75	12	70	72
76	13	70	86
77	6	72	73
78	14	72	85
79	4	73	74
80	7	73	91
81	8	73	92
82	3	74	75
83	5	74	76
84	5	74	77
85	1	75	78
86	1	75	82
87	1	78	79
88	2	78	87
89	1	79	80
90	2	79	90
91	1	80	81
92	20	80	83
93	1	81	82
94	2	81	88
95	2	82	89
96	11	83	84
97	12	91	93
98	13	91	108
99	14	93	94
100	6	93	95
101	4	95	96
102	7	95	106
103	8	95	107
104	4	96	97
105	4	96	101
106	5	96	102
107	5	97	98
108	5	97	99
109	5	97	100
110	5	101	103
111	5	101	104
112	5	101	105
113	12	106	109
114	13	106	110
115	6	109	111
116	14	109	113
117	4	111	112
118	7	111	130
119	8	111	131
120	4	112	114
121	5	112	115
122	5	112	116
123	4	114	117
124	5	114	118
125	5	114	119
126	21	117	120
127	8	117	121
128	8	117	122
129	22	120	123
130	23	120	148
131	22	123	124
132	22	123	125
133	23	124	128
134	23	124	129
135	23	125	126
136	23	125	127
137	12	130	132
138	13	130	133
139	6	132	134
140	14	132	143
141	24	134	135
142	4	134	136
143	8	134	137
144	19	135	144
145	19	135	145
146	6	136	138
147	5	136	139
148	5	136	140
149	9	138	141
150	10	138	142
151	11	141	146


Angles

1	1	2	1	6
2	2	2	1	10
3	2	6	1	10
4	1	1	2	3
5	2	1	2	11
6	2	3	2	11
7	1	2	3	4
8	2	2	3	9
9	2	4	3	9
10	1	3	4	5
11	3	3	4	12
12	3	5	4	12
13	1	4	5	6
14	2	4	5	7
15	2	6	5	7
16	1	1	6	5
17	2	1	6	8
18	2	5	6	8
19	4	4	12	13
20	5	4	12	14
21	5	4	12	15
22	6	13	12	14
23	6	13	12	15
24	7	14	12	15
25	8	12	13	16
26	9	12	13	19
27	10	12	13	20
28	11	16	13	19
29	12	16	13	20
30	13	19	13	20
31	14	13	16	17
32	15	13	16	18
33	16	17	16	18
34	17	16	17	35
35	18	13	19	21
36	19	13	19	36
37	20	21	19	36
38	21	19	21	22
39	22	19	21	23
40	23	22	21	23
41	8	21	23	24
42	11	21	23	31
43	12	21	23	34
44	9	24	23	31
45	10	24	23	34
46	13	31	23	34
47	24	23	24	25
48	6	23	24	26
49	6	23	24	27
50	6	25	24	26
51	6	25	24	27
52	7	26	24	27
53	24	24	25	28
54	6	24	25	29
55	6	24	25	30
56	6	28	25	29
57	6	28	25	30
58	7	29	25	30
59	9	25	28	31
60	10	25	28	32
61	10	25	28	33
62	13	31	28	32
63	13	31	28	33
64	25	32	28	33
65	26	23	31	28
66	18	23	31	37
67	18	28	31	37
68	21	31	37	38
69	22	31	37	39
70	23	38	37	39
71	8	37	39	40
72	11	37	39	51
73	12	37	39	52
74	9	40	39	51
75	10	40	39	52
76	13	51	39	52
77	27	39	40	41
78	6	39	40	42
79	6	39	40	43
80	28	41	40	42
81	28	41	40	43
82	7	42	40	43
83	29	40	41	44
84	30	40	41	47
85	31	44	41	47
86	31	41	44	45
87	32	41	44	49
88	33	45	44	49
89	34	44	45	46
90	35	44	45	147
91	35	46	45	147
92	36	45	46	47
93	33	45	46	50
94	33	47	46	50
95	34	41	47	46
96	35	41	47	48
97	35	46	47	48
98	18	39	51	53
99	19	39	51	54
100	20	53	51	54
101	21	51	53	55
102	22	51	53	56
103	23	55	53	56
104	8	53	56	57
105	11	53	56	70
106	12	53	56	71
107	9	57	56	70
108	10	57	56	71
109	13	70	56	71
110	24	56	57	58
111	24	56	57	65
112	6	56	57	66
113	24	58	57	65
114	6	58	57	66
115	6	65	57	66
116	24	57	58	59
117	6	57	58	60
118	6	57	58	61
119	6	59	58	60
120	6	59	58	61
121	7	60	58	61
122	6	58	59	62
123	6	58	59	63
124	6	58	59	64
125	7	62	59	63
126	7	62	59	64
127	7	63	59	64
128	6	57	65	67
129	6	57	65	68
130	6	57	65	69
131	7	67	65	68
132	7	67	65	69
133	7	68	65	69
134	18	56	70	72
135	19	56	70	86
136	20	72	70	86
137	22	70	72	73
138	21	70	72	85
139	23	73	72	85
140	8	72	73	74
141	11	72	73	91
142	12	72	73	92
143	9	74	73	91
144	10	74	73	92
145	13	91	73	92
146	4	73	74	75
147	6	73	74	76
148	6	73	74	77
149	5	75	74	76
150	5	75	74	77
151	7	76	74	77
152	3	74	75	78
153	3	74	75	82
154	1	78	75	82
155	1	75	78	79
156	2	75	78	87
157	2	79	78	87
158	1	78	79	80
159	2	78	79	90
160	2	80	79	90
161	1	79	80	81
162	37	79	80	83
163	37	81	80	83
164	1	80	81	82
165	2	80	81	88
166	2	82	81	88
167	1	75	82	81
168	2	75	82	89
169	2	81	82	89
170	38	80	83	84
171	18	73	91	93
172	19	73	91	108
173	20	93	91	108
174	21	91	93	94
175	22	91	93	95
176	23	94	93	95
177	8	93	95	96
178	11	93	95	106
179	12	93	95	107
180	9	96	95	106
181	10	96	95	107
182	13	106	95	107
183	24	95	96	97
184	24	95	96	101
185	6	95	96	102
186	24	97	96	101
187	6	97	96	102
188	6	101	96	102
189	6	96	97	98
190	6	96	97	99
191	6	96	97	100
192	7	98	97	99
193	7	98	97	100
194	7	99	97	100
195	6	96	101	103
196	6	96	101	104
197	6	96	101	105
198	7	103	101	104
199	7	103	101	105
200	7	104	101	105
201	18	95	106	109
202	19	95	106	110
203	20	109	106	110
204	22	106	109	111
205	21	106	109	113
206	23	111	109	113
207	8	109	111	112
208	11	109	111	130
209	12	109	111	131
210	9	112	111	130
211	10	112	111	131
212	13	130	111	131
213	24	111	112	114
214	6	111	112	115
215	6	111	112	116
216	6	114	112	115
217	6	114	112	116
218	7	115	112	116
219	24	112	114	117
220	6	112	114	118
221	6	112	114	119
222	6	117	114	118
223	6	117	114	119
224	7	118	114	119
225	39	114	117	120
226	10	114	117	121
227	10	114	117	122
228	40	120	117	121
229	40	120	117	122
230	25	121	117	122
231	41	117	120	123
232	42	117	120	148
233	43	123	120	148
234	44	120	123	124
235	44	120	123	125
236	44	124	123	125
237	43	123	124	128
238	43	123	124	129
239	45	128	124	129
240	43	123	125	126
241	43	123	125	127
242	45	126	125	127
243	18	111	130	132
244	19	111	130	133
245	20	132	130	133
246	22	130	132	134
247	21	130	132	143
248	23	134	132	143
249	46	132	134	135
250	8	132	134	136
251	12	132	134	137
252	47	135	134	136
253	48	135	134	137
254	10	136	134	137
255	49	134	135	144
256	49	134	135	145
257	50	144	135	145
258	8	134	136	138
259	6	134	136	139
260	6	134	136	140
261	51	138	136	139
262	51	138	136	140
263	7	139	136	140
264	14	136	138	141
265	15	136	138	142
266	16	141	138	142
267	17	138	141	146


Dihedrals

1	1	6	1	2	3
2	1	6	1	2	11
3	1	10	1	2	3
4	1	10	1	2	11
5	1	2	1	6	5
6	1	2	1	6	8
7	1	10	1	6	5
8	1	10	1	6	8
9	1	1	2	3	4
10	1	1	2	3	9
11	1	11	2	3	4
12	1	11	2	3	9
13	1	2	3	4	5
14	1	2	3	4	12
15	1	9	3	4	5
16	1	9	3	4	12
17	1	3	4	5	6
18	1	3	4	5	7
19	1	12	4	5	6
20	1	12	4	5	7
21	2	3	4	12	13
22	3	3	4	12	14
23	3	3	4	12	15
24	2	5	4	12	13
25	3	5	4	12	14
26	3	5	4	12	15
27	1	4	5	6	1
28	1	4	5	6	8
29	1	7	5	6	1
30	1	7	5	6	8
31	4	4	12	13	16
32	5	4	12	13	19
33	6	4	12	13	20
34	6	14	12	13	16
35	6	14	12	13	19
36	6	14	12	13	20
37	6	15	12	13	16
38	6	15	12	13	19
39	6	15	12	13	20
40	7	12	13	16	17
41	8	12	13	16	18
42	7	19	13	16	17
43	7	19	13	16	18
44	7	20	13	16	17
45	10	20	13	16	18
46	11	12	13	19	21
47	13	12	13	19	36
48	14	16	13	19	21
49	13	16	13	19	36
50	15	20	13	19	21
51	13	20	13	19	36
52	16	13	16	17	35
53	17	18	16	17	35
54	18	13	19	21	22
55	19	13	19	21	23
56	18	36	19	21	22
57	18	36	19	21	23
58	20	19	21	23	24
59	21	19	21	23	31
60	7	19	21	23	34
61	7	22	21	23	24
62	7	22	21	23	31
63	7	22	21	23	34
64	22	21	23	24	25
65	6	21	23	24	26
66	6	21	23	24	27
67	23	31	23	24	25
68	6	31	23	24	26
69	6	31	23	24	27
70	6	34	23	24	25
71	6	34	23	24	26
72	6	34	23	24	27
73	13	21	23	31	28
74	14	21	23	31	37
75	13	24	23	31	28
76	11	24	23	31	37
77	13	34	23	31	28
78	15	34	23	31	37
79	24	23	24	25	28
80	25	23	24	25	29
81	25	23	24	25	30
82	25	26	24	25	28
83	27	26	24	25	29
84	27	26	24	25	30
85	25	27	24	25	28
86	27	27	24	25	29
87	27	27	24	25	30
88	23	24	25	28	31
89	6	24	25	28	32
90	6	24	25	28	33
91	6	29	25	28	31
92	6	29	25	28	32
93	6	29	25	28	33
94	6	30	25	28	31
95	6	30	25	28	32
96	6	30	25	28	33
97	13	25	28	31	23
98	11	25	28	31	37
99	13	32	28	31	23
100	15	32	28	31	37
101	13	33	28	31	23
102	15	33	28	31	37
103	18	23	31	37	38
104	19	23	31	37	39
105	18	28	31	37	38
106	19	28	31	37	39
107	20	31	37	39	40
108	21	31	37	39	51
109	7	31	37	39	52
110	7	38	37	39	40
111	7	38	37	39	51
112	7	38	37	39	52
113	6	37	39	40	41
114	6	37	39	40	42
115	6	37	39	40	43
116	6	51	39	40	41
117	6	51	39	40	42
118	6	51	39	40	43
119	6	52	39	40	41
120	6	52	39	40	42
121	6	52	39	40	43
122	14	37	39	51	53
123	13	37	39	51	54
124	11	40	39	51	53
125	13	40	39	51	54
126	15	52	39	51	53
127	13	52	39	51	54
128	28	39	40	41	44
129	28	39	40	41	47
130	29	42	40	41	44
131	28	42	40	41	47
132	29	43	40	41	44
133	28	43	40	41	47
134	30	40	41	44	45
135	30	40	41	44	49
136	30	47	41	44	45
137	30	47	41	44	49
138	31	40	41	47	46
139	32	40	41	47	48
140	33	44	41	47	46
141	32	44	41	47	48
142	33	41	44	45	46
143	32	41	44	45	147
144	32	49	44	45	46
145	32	49	44	45	147
146	32	44	45	46	47
147	32	44	45	46	50
148	32	147	45	46	47
149	32	147	45	46	50
150	32	45	46	47	41
151	32	45	46	47	48
152	32	50	46	47	41
153	32	50	46	47	48
154	18	39	51	53	55
155	19	39	51	53	56
156	18	54	51	53	55
157	18	54	51	53	56
158	20	51	53	56	57
159	21	51	53	56	70
160	7	51	53	56	71
161	7	55	53	56	57
162	7	55	53	56	70
163	7	55	53	56	71
164	22	53	56	57	58
165	22	53	56	57	65
166	6	53	56	57	66
167	23	70	56	57	58
168	23	70	56	57	65
169	6	70	56	57	66
170	6	71	56	57	58
171	6	71	56	57	65
172	6	71	56	57	66
173	14	53	56	70	72
174	13	53	56	70	86
175	11	57	56	70	72
176	13	57	56	70	86
177	15	71	56	70	72
178	13	71	56	70	86
179	24	56	57	58	59
180	25	56	57	58	60
181	25	56	57	58	61
182	24	65	57	58	59
183	25	65	57	58	60
184	25	65	57	58	61
185	25	66	57	58	59
186	27	66	57	58	60
187	27	66	57	58	61
188	25	56	57	65	67
189	25	56	57	65	68
190	25	56	57	65	69
191	25	58	57	65	67
192	25	58	57	65	68
193	25	58	57	65	69
194	27	66	57	65	67
195	27	66	57	65	68
196	27	66	57	65	69
197	25	57	58	59	62
198	25	57	58	59	63
199	25	57	58	59	64
200	27	60	58	59	62
201	27	60	58	59	63
202	27	60	58	59	64
203	27	61	58	59	62
204	27	61	58	59	63
205	27	61	58	59	64
206	19	56	70	72	73
207	18	56	70	72	85
208	18	86	70	72	73
209	18	86	70	72	85
210	20	70	72	73	74
211	21	70	72	73	91
212	7	70	72	73	92
213	7	85	72	73	74
214	7	85	72	73	91
215	7	85	72	73	92
216	4	72	73	74	75
217	6	72	73	74	76
218	6	72	73	74	77
219	5	91	73	74	75
220	6	91	73	74	76
221	6	91	73	74	77
222	6	92	73	74	75
223	6	92	73	74	76
224	6	92	73	74	77
225	14	72	73	91	93
226	13	72	73	91	108
227	11	74	73	91	93
228	13	74	73	91	108
229	15	92	73	91	93
230	13	92	73	91	108
231	2	73	74	75	78
232	2	73	74	75	82
233	3	76	74	75	78
234	3	76	74	75	82
235	3	77	74	75	78
236	3	77	74	75	82
237	1	74	75	78	79
238	1	74	75	78	87
239	1	82	75	78	79
240	1	82	75	78	87
241	1	74	75	82	81
242	1	74	75	82	89
243	1	78	75	82	81
244	1	78	75	82	89
245	1	75	78	79	80
246	1	75	78	79	90
247	1	87	78	79	80
248	1	87	78	79	90
249	1	78	79	80	81
250	1	78	79	80	83
251	1	90	79	80	81
252	1	90	79	80	83
253	1	79	80	81	82
254	1	79	80	81	88
255	1	83	80	81	82
256	1	83	80	81	88
257	34	79	80	83	84
258	34	81	80	83	84
259	1	80	81	82	75
260	1	80	81	82	89
261	1	88	81	82	75
262	1	88	81	82	89
263	18	73	91	93	94
264	19	73	91	93	95
265	18	108	91	93	94
266	18	108	91	93	95
267	20	91	93	95	96
268	21	91	93	95	106
269	7	91	93	95	107
270	7	94	93	95	96
271	7	94	93	95	106
272	7	94	93	95	107
273	22	93	95	96	97
274	22	93	95	96	101
275	6	93	95	96	102
276	23	106	95	96	97
277	23	106	95	96	101
278	6	106	95	96	102
279	6	107	95	96	97
280	6	107	95	96	101
281	6	107	95	96	102
282	14	93	95	106	109
283	13	93	95	106	110
284	11	96	95	106	109
285	13	96	95	106	110
286	15	107	95	106	109
287	13	107	95	106	110
288	25	95	96	97	98
289	25	95	96	97	99
290	25	95	96	97	100
291	25	101	96	97	98
292	25	101	96	97	99
293	25	101	96	97	100
294	27	102	96	97	98
295	27	102	96	97	99
296	27	102	96	97	100
297	25	95	96	101	103
298	25	95	96	101	104
299	25	95	96	101	105
300	25	97	96	101	103
301	25	97	96	101	104
302	25	97	96	101	105
303	27	102	96	101	103
304	27	102	96	101	104
305	27	102	96	101	105
306	19	95	106	109	111
307	18	95	106	109	113
308	18	110	106	109	111
309	18	110	106	109	113
310	20	106	109	111	112
311	21	106	109	111	130
312	7	106	109	111	131
313	7	113	109	111	112
314	7	113	109	111	130
315	7	113	109	111	131
316	22	109	111	112	114
317	6	109	111	112	115
318	6	109	111	112	116
319	23	130	111	112	114
320	6	130	111	112	115
321	6	130	111	112	116
322	6	131	111	112	114
323	6	131	111	112	115
324	6	131	111	112	116
325	14	109	111	130	132
326	13	109	111	130	133
327	11	112	111	130	132
328	13	112	111	130	133
329	15	131	111	130	132
330	13	131	111	130	133
331	24	111	112	114	117
332	25	111	112	114	118
333	25	111	112	114	119
334	25	115	112	114	117
335	27	115	112	114	118
336	27	115	112	114	119
337	25	116	112	114	117
338	27	116	112	114	118
339	27	116	112	114	119
340	6	112	114	117	120
341	6	112	114	117	121
342	6	112	114	117	122
343	6	118	114	117	120
344	6	118	114	117	121
345	6	118	114	117	122
346	6	119	114	117	120
347	6	119	114	117	121
348	6	119	114	117	122
349	35	114	117	120	123
350	35	114	117	120	148
351	36	121	117	120	123
352	35	121	117	120	148
353	36	122	117	120	123
354	35	122	117	120	148
355	37	117	120	123	124
356	37	117	120	123	125
357	37	148	120	123	124
358	37	148	120	123	125
359	37	120	123	124	128
360	37	120	123	124	129
361	37	125	123	124	128
362	37	125	123	124	129
363	37	120	123	125	126
364	37	120	123	125	127
365	37	124	123	125	126
366	37	124	123	125	127
367	19	111	130	132	134
368	18	111	130	132	143
369	18	133	130	132	134
370	18	133	130	132	143
371	7	130	132	134	135
372	20	130	132	134	136
373	7	130	132	134	137
374	7	143	132	134	135
375	7	143	132	134	136
376	7	143	132	134	137
377	38	132	134	135	144
378	38	132	134	135	145
379	38	136	134	135	144
380	38	136	134	135	145
381	38	137	134	135	144
382	38	137	134	135	145
383	6	132	134	136	138
384	6	132	134	136	139
385	6	132	134	136	140
386	6	135	134	136	138
387	6	135	134	136	139
388	6	135	134	136	140
389	6	137	134	136	138
390	6	137	134	136	139
391	6	137	134	136	140
392	7	134	136	138	141
393	8	134	136	138	142
394	7	139	136	138	141
395	39	139	136	138	142
396	7	140	136	138	141
397	39	140	136	138	142
398	16	136	138	141	146
399	17	142	138	141	146
