
25	atoms
24	bonds
43	angles
59	dihedrals

11	atom types
12	bond types
21	angle types
19	dihedral types

-300.0 300.0 xlo xhi
-300.0 300.0 ylo yhi
-300.0 300.0 zlo zhi

Masses

1	12.01	#c3
2	1.008	#hc
3	12.01	#c
4	16.0	#oh
5	14.01	#n4
6	1.008	#hn
7	1.008	#hx
8	1.008	#ho
9	16.0	#o
10	14.01	#n3
11	1.008	#h1

Pair Coeffs

1	0.1078	3.39770953124	#c3
2	0.0208	2.60017699876	#hc
3	0.0988	3.31521230994	#c
4	0.093	3.24287133403	#oh
5	3.8748	2.49950544361	#n4
6	0.01	1.10649620793	#hn
7	0.0208	1.88745802425	#hx
8	0.0047	0.537924646013	#ho
9	0.1463	3.04812087425	#o
10	0.0858	3.36510263816	#n3
11	0.0208	2.42199725514	#h1

Bond Coeffs

1	232.52	1.538	#c3-c3
2	222.58	1.511	#c3-n4
3	386.49	1.091	#c3-hx
4	375.92	1.097	#c3-hc
5	243.22	1.524	#c-c3
6	261.19	1.465	#c3-n3
7	375.92	1.097	#c3-h1
8	383.13	1.351	#c-oh
9	652.57	1.218	#c-o
10	563.51	0.973	#ho-oh
11	482.87	1.03	#hn-n4
12	511.28	1.019	#hn-n3

Angle Coeffs

1	80.976	114.21	#c3-c3-n4
2	46.677	110.56	#c3-c3-hx
3	60.076	108.01	#hx-c3-n4
4	38.782	109.75	#hx-c3-hx
5	64.888	111.51	#c3-c3-c3
6	46.816	109.8	#c3-c3-hc
7	38.96	107.58	#hc-c3-hc
8	65.307	111.04	#c-c3-c3
9	83.305	111.04	#c3-c3-n3
10	83.673	111.14	#c-c3-n3
11	46.868	109.56	#c3-c3-h1
12	47.531	108.22	#c-c3-h1
13	61.163	109.88	#h1-c3-n3
14	85.803	112.73	#c3-c-oh
15	84.552	123.2	#c3-c-o
16	115.745	122.1	#o-c-oh
17	51.617	106.55	#c-oh-ho
18	46.193	110.11	#c3-n4-hn
19	40.02	108.3	#hn-n4-hn
20	47.782	109.29	#c3-n3-hn
21	40.828	106.4	#hn-n3-hn

Dihedral Coeffs

1	1	0.21	3	0.0	#n4-c3-c3-c3
2	1	0.155555555556	3	0.0	#X-c3-c3-X
3	3	0.13	3	0.0	0.29	2	180.0	0.11	1	0.0	#c3-c3-c3-c3
4	1	0.08	3	0.0	#hc-c3-c3-c3
5	1	0.08	3	0.0	#c3-c3-c3-hc
6	1	0.12	3	0.0	#hc-c3-c3-hc
7	1	0.1	3	0.0	#c-c3-c3-c3
8	1	0.21	3	0.0	#n3-c3-c3-c3
9	1	0.1	3	0.0	#hc-c3-c3-n3
10	1	0.0	2	180.0	#X-c-c3-X
11	1	0.27	2	180.0	#o-c-c3-c3
12	3	0.03	2	180.0	0.55	3	180.0	0.74	1	0.0	#c3-c3-c-o
13	2	0.8	1	0.0	0.08	3	180.0	#h1-c3-c-o
14	1	1.78	2	180.0	#ho-oh-c-c3
15	2	2.3	2	180.0	1.9	1	0.0	#ho-oh-c-o
16	1	0.155555555556	3	0.0	#X-c3-n4-X
17	1	0.109	3	0.0	#hn-n4-c3-hx
18	1	0.217	3	0.0	#hn-n3-c3-c3
19	1	0.3	3	0.0	#X-c3-n3-X




Atoms

1	1	1	0.088002	5.074	-2.671	0.177
2	1	1	-0.058567	4.195	-1.437	0.314
3	1	1	0.003024	2.757	-1.727	-0.134
4	1	2	0.044133	4.608	-0.628	-0.284
5	1	2	0.044133	4.194	-1.105	1.35
6	1	1	-0.077477	1.866	-0.496	0.026
7	1	2	0.021024	2.356	-2.544	0.462
8	1	2	0.021024	2.748	-2.053	-1.168
9	1	1	0.118836	0.417	-0.755	-0.404
10	1	2	0.052942	2.265	0.326	-0.567
11	1	2	0.052942	1.86	-0.166	1.056
12	1	3	0.694691	-0.464	0.409	0.083
13	1	4	-0.553198	-1.463	0.779	-0.703
14	1	5	-0.366016	6.487	-2.367	0.64
15	1	6	0.326372	6.498	-2.073	1.606
16	1	6	0.326372	6.897	-1.622	0.095
17	1	7	0.085394	5.159	-3.005	-0.848
18	1	7	0.085394	4.73	-3.492	0.789
19	1	8	0.383192	-1.487	0.285	-1.506
20	1	9	-0.551294	-0.28	0.931	1.129
21	1	10	-0.865558	0.348	-1.077	-1.811
22	1	6	0.352705	0.52	-0.314	-2.432
23	1	6	0.352705	-0.447	-1.608	-2.095
24	1	11	0.092854	0.05	-1.621	0.141
25	1	6	0.326372	7.091	-3.172	0.56


Bonds

1	1	1	2
2	2	1	14
3	3	1	17
4	3	1	18
5	1	2	3
6	4	2	4
7	4	2	5
8	1	3	6
9	4	3	7
10	4	3	8
11	1	6	9
12	4	6	10
13	4	6	11
14	5	9	12
15	6	9	21
16	7	9	24
17	8	12	13
18	9	12	20
19	10	13	19
20	11	14	15
21	11	14	16
22	11	14	25
23	12	21	22
24	12	21	23


Angles

1	1	14	1	2
2	2	17	1	2
3	3	17	1	14
4	2	18	1	2
5	3	18	1	14
6	4	18	1	17
7	5	3	2	1
8	6	4	2	1
9	6	4	2	3
10	6	5	2	1
11	6	5	2	3
12	7	5	2	4
13	5	6	3	2
14	6	7	3	2
15	6	7	3	6
16	6	8	3	2
17	6	8	3	6
18	7	8	3	7
19	5	9	6	3
20	6	10	6	3
21	6	10	6	9
22	6	11	6	3
23	6	11	6	9
24	7	11	6	10
25	8	12	9	6
26	9	21	9	6
27	10	21	9	12
28	11	24	9	6
29	12	24	9	12
30	13	24	9	21
31	14	13	12	9
32	15	20	12	9
33	16	20	12	13
34	17	19	13	12
35	18	15	14	1
36	18	16	14	1
37	19	16	14	15
38	18	25	14	1
39	19	25	14	15
40	19	25	14	16
41	20	22	21	9
42	20	23	21	9
43	21	23	21	22


Dihedrals

1	1	3	2	1	14
2	2	3	2	1	17
3	2	3	2	1	18
4	2	4	2	1	14
5	2	4	2	1	17
6	2	4	2	1	18
7	2	5	2	1	14
8	2	5	2	1	17
9	2	5	2	1	18
10	3	6	3	2	1
11	4	6	3	2	4
12	4	6	3	2	5
13	4	7	3	2	1
14	6	7	3	2	4
15	6	7	3	2	5
16	4	8	3	2	1
17	6	8	3	2	4
18	6	8	3	2	5
19	3	9	6	3	2
20	4	9	6	3	7
21	4	9	6	3	8
22	4	10	6	3	2
23	6	10	6	3	7
24	6	10	6	3	8
25	4	11	6	3	2
26	6	11	6	3	7
27	6	11	6	3	8
28	7	12	9	6	3
29	2	12	9	6	10
30	2	12	9	6	11
31	8	21	9	6	3
32	9	21	9	6	10
33	9	21	9	6	11
34	2	24	9	6	3
35	2	24	9	6	10
36	2	24	9	6	11
37	10	13	12	9	6
38	10	13	12	9	21
39	10	13	12	9	24
40	11	20	12	9	6
41	10	20	12	9	21
42	13	20	12	9	24
43	14	19	13	12	9
44	15	19	13	12	20
45	16	15	14	1	2
46	17	15	14	1	17
47	17	15	14	1	18
48	16	16	14	1	2
49	17	16	14	1	17
50	17	16	14	1	18
51	16	25	14	1	2
52	17	25	14	1	17
53	17	25	14	1	18
54	18	22	21	9	6
55	19	22	21	9	12
56	19	22	21	9	24
57	18	23	21	9	6
58	19	23	21	9	12
59	19	23	21	9	24
