
20	atoms
19	bonds
34	angles
44	dihedrals

9	atom types
9	bond types
15	angle types
13	dihedral types

-300.0 300.0 xlo xhi
-300.0 300.0 ylo yhi
-300.0 300.0 zlo zhi

Masses

1	12.01	#c3
2	1.008	#hc
3	12.01	#c
4	16.0	#oh
5	1.008	#ho
6	16.0	#o
7	14.01	#n4
8	1.008	#hn
9	1.008	#hx

Pair Coeffs

1	0.1078	3.39770953124	#c3
2	0.0208	2.60017699876	#hc
3	0.0988	3.31521230994	#c
4	0.093	3.24287133403	#oh
5	0.0047	0.537924646013	#ho
6	0.1463	3.04812087425	#o
7	3.8748	2.49950544361	#n4
8	0.01	1.10649620793	#hn
9	0.0208	1.88745802425	#hx

Bond Coeffs

1	232.52	1.538	#c3-c3
2	375.92	1.097	#c3-hc
3	243.22	1.524	#c-c3
4	222.58	1.511	#c3-n4
5	386.49	1.091	#c3-hx
6	383.13	1.351	#c-oh
7	652.57	1.218	#c-o
8	563.51	0.973	#ho-oh
9	482.87	1.03	#hn-n4

Angle Coeffs

1	64.888	111.51	#c3-c3-c3
2	46.816	109.8	#c3-c3-hc
3	38.96	107.58	#hc-c3-hc
4	65.307	111.04	#c-c3-c3
5	80.976	114.21	#c3-c3-n4
6	82.611	110.73	#c-c3-n4
7	46.677	110.56	#c3-c3-hx
8	47.419	108.85	#c-c3-hx
9	60.076	108.01	#hx-c3-n4
10	85.803	112.73	#c3-c-oh
11	84.552	123.2	#c3-c-o
12	115.745	122.1	#o-c-oh
13	51.617	106.55	#c-oh-ho
14	46.193	110.11	#c3-n4-hn
15	40.02	108.3	#hn-n4-hn

Dihedral Coeffs

1	1	0.08	3	0.0	#hc-c3-c3-c3
2	1	0.08	3	0.0	#c3-c3-c3-hc
3	1	0.12	3	0.0	#hc-c3-c3-hc
4	1	0.1	3	0.0	#c-c3-c3-c3
5	1	0.155555555556	3	0.0	#X-c3-c3-X
6	1	0.21	3	0.0	#n4-c3-c3-c3
7	1	0.0	2	180.0	#X-c-c3-X
8	1	0.27	2	180.0	#o-c-c3-c3
9	3	0.03	2	180.0	0.55	3	180.0	0.74	1	0.0	#c3-c3-c-o
10	1	1.78	2	180.0	#ho-oh-c-c3
11	2	2.3	2	180.0	1.9	1	0.0	#ho-oh-c-o
12	1	0.155555555556	3	0.0	#X-c3-n4-X
13	1	0.109	3	0.0	#hn-n4-c3-hx




Atoms

1	1	1	0.09478	-0.846	-2.136	1.819
2	1	1	-0.188366	0.622	-2.57	1.933
3	1	1	-0.389719	-1.761	-3.368	1.794
4	1	2	0.081816	1.294	-1.735	2.083
5	1	2	0.081816	0.939	-3.131	1.057
6	1	2	0.081816	0.733	-3.225	2.787
7	1	2	0.126553	-1.578	-3.979	0.915
8	1	2	0.126553	-2.821	-3.131	1.831
9	1	2	0.126553	-1.564	-3.98	2.665
10	1	1	0.008402	-1.065	-1.244	0.571
11	1	2	0.053472	-1.086	-1.529	2.69
12	1	3	0.666478	-0.199	0.023	0.56
13	1	4	-0.519783	1.014	-0.059	0.082
14	1	5	0.423998	1.273	-0.911	-0.235
15	1	6	-0.486551	-0.657	1.03	0.981
16	1	7	-0.395697	-2.473	-0.706	0.562
17	1	8	0.334554	-2.523	0.058	1.228
18	1	8	0.334554	-3.155	-1.41	0.794
19	1	9	0.104215	-0.942	-1.82	-0.339
20	1	8	0.334554	-2.72	-0.313	-0.335


Bonds

1	1	1	2
2	1	1	3
3	1	1	10
4	2	1	11
5	2	2	4
6	2	2	5
7	2	2	6
8	2	3	7
9	2	3	8
10	2	3	9
11	3	10	12
12	4	10	16
13	5	10	19
14	6	12	13
15	7	12	15
16	8	13	14
17	9	16	17
18	9	16	18
19	9	16	20


Angles

1	1	3	1	2
2	1	10	1	2
3	1	10	1	3
4	2	11	1	2
5	2	11	1	3
6	2	11	1	10
7	2	4	2	1
8	2	5	2	1
9	3	5	2	4
10	2	6	2	1
11	3	6	2	4
12	3	6	2	5
13	2	7	3	1
14	2	8	3	1
15	3	8	3	7
16	2	9	3	1
17	3	9	3	7
18	3	9	3	8
19	4	12	10	1
20	5	16	10	1
21	6	16	10	12
22	7	19	10	1
23	8	19	10	12
24	9	19	10	16
25	10	13	12	10
26	11	15	12	10
27	12	15	12	13
28	13	14	13	12
29	14	17	16	10
30	14	18	16	10
31	15	18	16	17
32	14	20	16	10
33	15	20	16	17
34	15	20	16	18


Dihedrals

1	1	4	2	1	3
2	1	4	2	1	10
3	3	4	2	1	11
4	1	5	2	1	3
5	1	5	2	1	10
6	3	5	2	1	11
7	1	6	2	1	3
8	1	6	2	1	10
9	3	6	2	1	11
10	1	7	3	1	2
11	1	7	3	1	10
12	3	7	3	1	11
13	1	8	3	1	2
14	1	8	3	1	10
15	3	8	3	1	11
16	1	9	3	1	2
17	1	9	3	1	10
18	3	9	3	1	11
19	4	12	10	1	2
20	4	12	10	1	3
21	5	12	10	1	11
22	6	16	10	1	2
23	6	16	10	1	3
24	5	16	10	1	11
25	5	19	10	1	2
26	5	19	10	1	3
27	5	19	10	1	11
28	7	13	12	10	1
29	7	13	12	10	16
30	7	13	12	10	19
31	8	15	12	10	1
32	7	15	12	10	16
33	7	15	12	10	19
34	10	14	13	12	10
35	11	14	13	12	15
36	12	17	16	10	1
37	12	17	16	10	12
38	13	17	16	10	19
39	12	18	16	10	1
40	12	18	16	10	12
41	13	18	16	10	19
42	12	20	16	10	1
43	12	20	16	10	12
44	13	20	16	10	19
