
28	atoms
29	bonds
49	angles
72	dihedrals

15	atom types
18	bond types
29	angle types
16	dihedral types

-300.0 300.0 xlo xhi
-300.0 300.0 ylo yhi
-300.0 300.0 zlo zhi

Masses

1	12.01	#ca
2	12.01	#cc
3	12.01	#cd
4	14.01	#na
5	1.008	#hn
6	12.01	#c3
7	1.008	#hc
8	12.01	#c
9	14.01	#n4
10	1.008	#hx
11	16.0	#o
12	16.0	#oh
13	1.008	#ho
14	1.008	#h4
15	1.008	#ha

Pair Coeffs

1	0.0988	3.31521230994	#ca
2	0.0988	3.31521230994	#cc
3	0.0988	3.31521230994	#cd
4	0.2042	3.20580994736	#na
5	0.01	1.10649620793	#hn
6	0.1078	3.39770953124	#c3
7	0.0208	2.60017699876	#hc
8	0.0988	3.31521230994	#c
9	3.8748	2.49950544361	#n4
10	0.0208	1.88745802425	#hx
11	0.1463	3.04812087425	#o
12	0.093	3.24287133403	#oh
13	0.0047	0.537924646013	#ho
14	0.0161	2.53638865055	#h4
15	0.0161	2.62547852236	#ha

Bond Coeffs

1	378.57	1.398	#ca-ca
2	395.72	1.086	#ca-ha
3	308.19	1.456	#ca-cc
4	349.52	1.384	#ca-na
5	416.13	1.373	#cc-cd
6	262.64	1.502	#c3-cc
7	354.49	1.38	#cd-na
8	403.88	1.082	#cd-h4
9	535.14	1.01	#hn-na
10	232.52	1.538	#c3-c3
11	375.92	1.097	#c3-hc
12	243.22	1.524	#c-c3
13	222.58	1.511	#c3-n4
14	386.49	1.091	#c3-hx
15	652.57	1.218	#c-o
16	383.13	1.351	#c-oh
17	482.87	1.03	#hn-n4
18	563.51	0.973	#ho-oh

Angle Coeffs

1	68.767	120.02	#ca-ca-ca
2	48.68	119.88	#ca-ca-ha
3	67.122	120.79	#ca-ca-cc
4	87.167	118.34	#ca-ca-na
5	69.802	113.51	#ca-cc-cd
6	63.318	126.52	#c3-cc-ca
7	66.802	119.45	#c3-cc-cd
8	69.377	113.15	#ca-na-cd
9	92.653	106.99	#cc-cd-na
10	47.759	128.48	#cc-cd-h4
11	61.487	120.53	#h4-cd-na
12	46.979	125.54	#ca-na-hn
13	47.101	125.5	#cd-na-hn
14	65.515	111.93	#c3-c3-cc
15	47.671	110.49	#cc-c3-hc
16	46.816	109.8	#c3-c3-hc
17	38.96	107.58	#hc-c3-hc
18	65.307	111.04	#c-c3-c3
19	80.976	114.21	#c3-c3-n4
20	82.611	110.73	#c-c3-n4
21	46.677	110.56	#c3-c3-hx
22	47.419	108.85	#c-c3-hx
23	60.076	108.01	#hx-c3-n4
24	84.552	123.2	#c3-c-o
25	85.803	112.73	#c3-c-oh
26	115.745	122.1	#o-c-oh
27	46.193	110.11	#c3-n4-hn
28	40.02	108.3	#hn-n4-hn
29	51.617	106.55	#c-oh-ho

Dihedral Coeffs

1	1	3.625	2	180.0	#X-ca-ca-X
2	1	3.625	2	180.0	#X-cc-ca-X
3	1	0.3	2	180.0	#X-ca-na-X
4	1	4.0	2	180.0	#X-cc-cd-X
5	1	1.7	2	180.0	#X-cd-na-X
6	1	0.082	3	0.0	#c3-c3-cc-ca
7	1	0.157	3	180.0	#cd-cc-c3-c3
8	1	0.0	3	0.0	#X-c3-cc-X
9	1	0.155555555556	3	0.0	#X-c3-c3-X
10	1	0.27	2	180.0	#o-c-c3-c3
11	3	0.03	2	180.0	0.55	3	180.0	0.74	1	0.0	#c3-c3-c-o
12	1	0.0	2	180.0	#X-c-c3-X
13	1	0.155555555556	3	0.0	#X-c3-n4-X
14	1	0.109	3	0.0	#hn-n4-c3-hx
15	1	1.78	2	180.0	#ho-oh-c-c3
16	2	2.3	2	180.0	1.9	1	0.0	#ho-oh-c-o




Atoms

1	1	1	-0.118021	-3.1	1.993	1.142
2	1	1	-0.132681	-3.692	3.258	0.981
3	1	1	-0.323896	-3.312	4.09	-0.042
4	1	1	0.143722	-2.31	3.661	-0.929
5	1	1	0.128753	-1.746	2.392	-0.756
6	1	1	-0.200429	-2.13	1.543	0.281
7	1	2	-0.02516	-1.671	4.241	-2.095
8	1	3	-0.154664	-0.798	3.309	-2.553
9	1	4	-0.413233	-0.828	2.207	-1.758
10	1	5	0.403238	-0.311	1.374	-1.92
11	1	6	-0.376092	-1.91	5.614	-2.651
12	1	6	0.05438	-0.983	6.679	-2.018
13	1	7	0.172466	-2.944	5.912	-2.504
14	1	7	0.172466	-1.737	5.629	-3.722
15	1	8	0.684886	-1.382	8.105	-2.4
16	1	9	-0.376772	-1.073	6.626	-0.524
17	1	5	0.319276	-1.162	5.67	-0.199
18	1	5	0.319276	-1.876	7.167	-0.224
19	1	10	0.1097	0.048	6.475	-2.277
20	1	11	-0.499271	-1.899	8.806	-1.598
21	1	12	-0.499271	-1.162	8.479	-3.634
22	1	13	0.404454	-0.708	7.852	-4.177
23	1	5	0.319276	-0.27	7.048	-0.083
24	1	14	0.215467	-0.153	3.344	-3.409
25	1	15	0.159302	-4.464	3.565	1.663
26	1	15	0.18419	-3.81	5.037	-0.174
27	1	15	0.160633	-3.422	1.363	1.951
28	1	15	0.168003	-1.689	0.569	0.399


Bonds

1	1	1	2
2	1	1	6
3	2	1	27
4	1	2	3
5	2	2	25
6	1	3	4
7	2	3	26
8	1	4	5
9	3	4	7
10	1	5	6
11	4	5	9
12	2	6	28
13	5	7	8
14	6	7	11
15	7	8	9
16	8	8	24
17	9	9	10
18	10	11	12
19	11	11	13
20	11	11	14
21	12	12	15
22	13	12	16
23	14	12	19
24	15	15	20
25	16	15	21
26	17	16	17
27	17	16	18
28	17	16	23
29	18	21	22


Angles

1	1	6	1	2
2	2	27	1	2
3	2	27	1	6
4	1	3	2	1
5	2	25	2	1
6	2	25	2	3
7	1	4	3	2
8	2	26	3	2
9	2	26	3	4
10	1	5	4	3
11	3	7	4	3
12	3	7	4	5
13	1	5	6	1
14	1	6	5	4
15	4	9	5	4
16	4	9	5	6
17	2	28	6	1
18	2	28	6	5
19	5	8	7	4
20	6	11	7	4
21	7	11	7	8
22	8	8	9	5
23	9	9	8	7
24	10	24	8	7
25	11	24	8	9
26	12	10	9	5
27	13	10	9	8
28	14	12	11	7
29	15	13	11	7
30	16	13	11	12
31	15	14	11	7
32	16	14	11	12
33	17	14	11	13
34	18	15	12	11
35	19	16	12	11
36	20	16	12	15
37	21	19	12	11
38	22	19	12	15
39	23	19	12	16
40	24	20	15	12
41	25	21	15	12
42	26	21	15	20
43	27	17	16	12
44	27	18	16	12
45	28	18	16	17
46	27	23	16	12
47	28	23	16	17
48	28	23	16	18
49	29	22	21	15


Dihedrals

1	1	3	2	1	6
2	1	3	2	1	27
3	1	25	2	1	6
4	1	25	2	1	27
5	1	4	3	2	1
6	1	4	3	2	25
7	1	26	3	2	1
8	1	26	3	2	25
9	1	5	4	3	2
10	1	5	4	3	26
11	1	7	4	3	2
12	1	7	4	3	26
13	1	5	6	1	2
14	1	5	6	1	27
15	1	6	5	4	3
16	1	6	5	4	7
17	1	4	5	6	1
18	1	9	5	4	3
19	1	9	5	4	7
20	1	9	5	6	1
21	1	28	6	1	2
22	1	28	6	1	27
23	1	28	6	5	4
24	1	28	6	5	9
25	2	8	7	4	3
26	2	8	7	4	5
27	2	11	7	4	3
28	2	11	7	4	5
29	3	8	9	5	4
30	3	8	9	5	6
31	4	9	8	7	4
32	4	9	8	7	11
33	5	7	8	9	5
34	4	24	8	7	4
35	4	24	8	7	11
36	5	24	8	9	5
37	3	10	9	5	4
38	3	10	9	5	6
39	5	10	9	8	7
40	5	10	9	8	24
41	6	12	11	7	4
42	7	12	11	7	8
43	8	13	11	7	4
44	8	13	11	7	8
45	8	14	11	7	4
46	8	14	11	7	8
47	9	15	12	11	7
48	9	15	12	11	13
49	9	15	12	11	14
50	9	16	12	11	7
51	9	16	12	11	13
52	9	16	12	11	14
53	9	19	12	11	7
54	9	19	12	11	13
55	9	19	12	11	14
56	10	20	15	12	11
57	12	20	15	12	16
58	12	20	15	12	19
59	12	21	15	12	11
60	12	21	15	12	16
61	12	21	15	12	19
62	13	17	16	12	11
63	13	17	16	12	15
64	14	17	16	12	19
65	13	18	16	12	11
66	13	18	16	12	15
67	14	18	16	12	19
68	13	23	16	12	11
69	13	23	16	12	15
70	14	23	16	12	19
71	15	22	21	15	12
72	16	22	21	15	20
