
149	atoms
153	bonds
274	angles
411	dihedrals

15	atom types
20	bond types
40	angle types
41	dihedral types

-300.0 300.0 xlo xhi
-300.0 300.0 ylo yhi
-300.0 300.0 zlo zhi

Masses

1	16.0	#o
2	12.01	#c
3	12.01	#c3
4	1.008	#h1
5	1.008	#hc
6	14.01	#n
7	14.01	#n2
8	12.01	#c2
9	14.01	#nh
10	1.008	#hn
11	14.01	#n3
12	12.01	#ca
13	1.008	#ha
14	16.0	#oh
15	1.008	#ho

Pair Coeffs

1	0.1463	3.04812087425	#o
2	0.0988	3.31521230994	#c
3	0.1078	3.39770953124	#c3
4	0.0208	2.42199725514	#h1
5	0.0208	2.60017699876	#hc
6	0.1636	3.18086478325	#n
7	0.0941	3.38416787073	#n2
8	0.0988	3.31521230994	#c2
9	0.215	3.18995195017	#nh
10	0.01	1.10649620793	#hn
11	0.0858	3.36510263816	#n3
12	0.0988	3.31521230994	#ca
13	0.0161	2.62547852236	#ha
14	0.093	3.24287133403	#oh
15	0.0047	0.537924646013	#ho

Bond Coeffs

1	652.57	1.218	#c-o
2	243.22	1.524	#c-c3
3	356.21	1.379	#c-n
4	375.92	1.097	#c3-h1
5	232.52	1.538	#c3-c3
6	263.77	1.462	#c3-n
7	375.92	1.097	#c3-hc
8	261.19	1.465	#c3-n3
9	259.91	1.466	#c3-n2
10	518.67	1.282	#c2-n2
11	345.39	1.387	#c2-nh
12	529.46	1.012	#hn-nh
13	511.28	1.019	#hn-n3
14	527.31	1.013	#hn-n
15	250.32	1.516	#c3-ca
16	378.57	1.398	#ca-ca
17	395.72	1.086	#ca-ha
18	293.4	1.423	#c3-oh
19	563.51	0.973	#ho-oh
20	383.13	1.351	#c-oh

Angle Coeffs

1	84.552	123.2	#c3-c-o
2	113.811	123.05	#n-c-o
3	84.266	115.18	#c3-c-n
4	47.531	108.22	#c-c3-h1
5	65.307	111.04	#c-c3-c3
6	46.868	109.56	#c3-c3-h1
7	84.54	109.06	#c-c3-n
8	61.544	108.88	#h1-c3-n
9	83.161	111.61	#c3-c3-n
10	46.816	109.8	#c3-c3-hc
11	38.96	107.58	#hc-c3-hc
12	64.888	111.51	#c3-c3-c3
13	38.802	108.46	#h1-c3-h1
14	64.88	115.64	#c3-n-c3
15	65.252	120.69	#c-n-c3
16	83.673	111.14	#c-c3-n3
17	61.163	109.88	#h1-c3-n3
18	83.305	111.04	#c3-c3-n3
19	84.123	108.8	#c3-c3-n2
20	61.133	109.81	#h1-c3-n2
21	68.517	115.3	#c2-n2-c3
22	110.708	124.27	#n2-c2-nh
23	112.122	112.82	#nh-c2-nh
24	48.954	115.09	#c2-nh-hn
25	39.519	115.12	#hn-nh-hn
26	47.782	109.29	#c3-n3-hn
27	40.828	106.4	#hn-n3-hn
28	48.691	117.55	#c-n-hn
29	46.147	117.68	#c3-n-hn
30	65.183	112.07	#c3-c3-ca
31	47.281	110.47	#ca-c3-hc
32	65.583	120.77	#c3-ca-ca
33	68.767	120.02	#ca-ca-ca
34	48.68	119.88	#ca-ca-ha
35	84.642	110.19	#c3-c3-oh
36	62.54	110.26	#h1-c3-oh
37	49.027	107.26	#c3-oh-ho
38	85.803	112.73	#c3-c-oh
39	115.745	122.1	#o-c-oh
40	51.617	106.55	#c-oh-ho

Dihedral Coeffs

1	2	0.8	1	0.0	0.08	3	180.0	#h1-c3-c-o
2	1	0.0	2	180.0	#X-c-c3-X
3	1	0.27	2	180.0	#o-c-c3-c3
4	3	0.03	2	180.0	0.55	3	180.0	0.74	1	0.0	#c3-c3-c-o
5	2	0.0	4	180.0	0.71	2	180.0	#n-c-c3-c3
6	2	0.1	1	180.0	2.12	2	180.0	#n-c-c3-n
7	1	0.155555555556	3	0.0	#X-c3-c3-X
8	1	0.1	3	0.0	#c-c3-c3-c3
9	1	0.1	3	0.0	#n-c3-c3-c3
10	1	0.08	3	0.0	#hc-c3-c3-c3
11	1	0.08	3	0.0	#c3-c3-c3-hc
12	1	0.12	3	0.0	#hc-c3-c3-hc
13	3	0.13	3	0.0	0.29	2	180.0	0.11	1	0.0	#c3-c3-c3-c3
14	1	0.0	2	0.0	#X-c3-n-X
15	2	0.39	2	180.0	0.64	1	0.0	#c-c3-n-c
16	1	0.0	2	180.0	#h1-c3-n-c
17	3	0.1	4	180.0	0.17	3	0.0	1.02	1	180.0	#c-n-c3-c3
18	3	0.65	4	180.0	0.03	3	180.0	2.26	1	0.0	#c3-c3-n-c
19	2	0.26	2	180.0	0.5	1	0.0	#c3-n-c-c3
20	1	2.5	2	180.0	#X-c-n-X
21	1	0.1	3	0.0	#hc-c3-c3-n3
22	1	0.21	3	0.0	#n3-c3-c3-c3
23	1	0.0	3	0.0	#X-c3-n2-X
24	1	0.165	3	180.0	#h1-c3-n2-c2
25	1	4.15	2	180.0	#X-c2-n2-X
26	1	0.675	2	180.0	#X-c2-nh-X
27	1	0.3	3	0.0	#X-c3-n3-X
28	1	0.217	3	0.0	#hn-n3-c3-c3
29	2	2.5	2	180.0	2.0	1	0.0	#hn-n-c-o
30	1	0.21	3	0.0	#ca-c3-c3-n
31	1	0.1	3	0.0	#ca-c3-c3-c
32	1	0.245	2	180.0	#c3-c3-ca-ca
33	1	0.0	2	180.0	#hc-c3-ca-ca
34	1	3.625	2	180.0	#X-ca-ca-X
35	1	0.101	3	0.0	#oh-c3-c3-n
36	2	0.0	3	0.0	0.25	1	0.0	#h1-c3-c3-oh
37	1	0.21	3	0.0	#oh-c3-c3-c
38	1	0.0	3	0.0	#ho-oh-c3-c3
39	1	0.113	3	0.0	#ho-oh-c3-h1
40	1	1.78	2	180.0	#ho-oh-c-c3
41	2	2.3	2	180.0	1.9	1	0.0	#ho-oh-c-o




Atoms

1	1	1	0.013422818791946308	8.531	0.027	-0.392
2	1	2	0.013422818791946308	9.157	1.007	-0.035
3	1	3	0.013422818791946308	10.622	1.178	-0.441
4	1	4	0.013422818791946308	11.1	1.92	0.198
5	1	3	0.013422818791946308	10.728	1.647	-1.904
6	1	5	0.013422818791946308	9.909	1.23	-2.497
7	1	5	0.013422818791946308	10.705	2.736	-1.99
8	1	3	0.013422818791946308	12.055	1.055	-2.388
9	1	5	0.013422818791946308	12.066	0.885	-3.467
10	1	5	0.013422818791946308	12.875	1.727	-2.124
11	1	3	0.013422818791946308	12.179	-0.251	-1.591
12	1	4	0.013422818791946308	11.728	-1.084	-2.138
13	1	4	0.013422818791946308	13.232	-0.467	-1.392
14	1	6	0.013422818791946308	11.44	-0.047	-0.335
15	1	2	0.013422818791946308	11.476	-0.851	0.763
16	1	3	0.013422818791946308	12.359	-2.094	0.721
17	1	4	0.013422818791946308	12.563	-2.35	-0.319
18	1	3	0.013422818791946308	13.69	-1.806	1.455
19	1	5	0.013422818791946308	14.053	-0.821	1.151
20	1	5	0.013422818791946308	13.515	-1.765	2.534
21	1	3	0.013422818791946308	14.779	-2.851	1.129
22	1	5	0.013422818791946308	14.44	-3.852	1.408
23	1	5	0.013422818791946308	14.957	-2.851	0.051
24	1	3	0.013422818791946308	16.089	-2.523	1.876
25	1	4	0.013422818791946308	16.33	-1.463	1.754
26	1	4	0.013422818791946308	15.971	-2.735	2.943
27	1	7	0.013422818791946308	17.206	-3.335	1.325
28	1	8	0.013422818791946308	18.156	-3.58	0.82
29	1	9	0.013422818791946308	18.651	-3.014	0.014
30	1	10	0.013422818791946308	18.003	-2.289	-0.291
31	1	10	0.013422818791946308	19.512	-2.845	-0.508
32	1	9	0.013422818791946308	18.677	-4.534	1.0
33	1	10	0.013422818791946308	18.078	-5.17	1.525
34	1	10	0.013422818791946308	19.586	-4.995	0.95
35	1	11	0.013422818791946308	11.667	-3.243	1.333
36	1	10	0.013422818791946308	12.274	-4.058	1.37
37	1	10	0.013422818791946308	11.386	-3.014	2.285
38	1	1	0.013422818791946308	10.955	-0.507	1.806
39	1	6	0.013422818791946308	8.564	1.996	0.691
40	1	3	0.013422818791946308	9.232	3.182	1.247
41	1	4	0.013422818791946308	10.135	2.905	1.798
42	1	4	0.013422818791946308	9.482	3.864	0.429
43	1	3	0.013422818791946308	8.227	3.846	2.196
44	1	5	0.013422818791946308	8.352	3.439	3.203
45	1	5	0.013422818791946308	8.349	4.931	2.234
46	1	3	0.013422818791946308	6.862	3.432	1.639
47	1	5	0.013422818791946308	6.098	3.38	2.417
48	1	5	0.013422818791946308	6.547	4.159	0.885
49	1	3	0.013422818791946308	7.116	2.061	0.984
50	1	4	0.013422818791946308	6.888	1.267	1.702
51	1	2	0.013422818791946308	6.21	1.873	-0.225
52	1	6	0.013422818791946308	5.003	1.33	0.043
53	1	10	0.013422818791946308	4.785	1.053	0.988
54	1	3	0.013422818791946308	3.965	1.097	-0.968
55	1	4	0.013422818791946308	3.94	1.938	-1.666
56	1	4	0.013422818791946308	4.193	0.18	-1.518
57	1	2	0.013422818791946308	2.576	0.95	-0.376
58	1	6	0.013422818791946308	1.573	1.024	-1.28
59	1	10	0.013422818791946308	1.81	1.104	-2.257
60	1	3	0.013422818791946308	0.138	1.12	-0.955
61	1	4	0.013422818791946308	-0.043	0.611	-0.003
62	1	3	0.013422818791946308	-0.324	2.592	-0.833
63	1	5	0.013422818791946308	-0.201	3.09	-1.799
64	1	5	0.013422818791946308	-1.392	2.62	-0.604
65	1	12	0.013422818791946308	0.429	3.365	0.241
66	1	12	0.013422818791946308	1.52	4.169	-0.098
67	1	13	0.013422818791946308	1.833	4.256	-1.136
68	1	12	0.013422818791946308	2.224	4.853	0.89
69	1	13	0.013422818791946308	3.075	5.473	0.621
70	1	12	0.013422818791946308	1.838	4.743	2.224
71	1	13	0.013422818791946308	2.386	5.277	2.996
72	1	12	0.013422818791946308	0.748	3.945	2.569
73	1	13	0.013422818791946308	0.448	3.856	3.61
74	1	12	0.013422818791946308	0.047	3.257	1.58
75	1	13	0.013422818791946308	-0.796	2.629	1.859
76	1	2	0.013422818791946308	-0.701	0.397	-2.001
77	1	6	0.013422818791946308	-1.965	0.087	-1.629
78	1	10	0.013422818791946308	-2.281	0.344	-0.707
79	1	3	0.013422818791946308	-2.844	-0.824	-2.382
80	1	4	0.013422818791946308	-2.62	-0.697	-3.443
81	1	3	0.013422818791946308	-2.533	-2.284	-1.98
82	1	4	0.013422818791946308	-3.145	-2.977	-2.556
83	1	4	0.013422818791946308	-1.482	-2.504	-2.189
84	1	14	0.013422818791946308	-2.786	-2.484	-0.59
85	1	15	0.013422818791946308	-3.089	-3.401	-0.482
86	1	2	0.013422818791946308	-4.332	-0.498	-2.198
87	1	6	0.013422818791946308	-5.222	-0.991	-3.11
88	1	3	0.013422818791946308	-4.891	-1.809	-4.291
89	1	4	0.013422818791946308	-4.04	-1.403	-4.842
90	1	4	0.013422818791946308	-4.679	-2.831	-3.969
91	1	3	0.013422818791946308	-6.138	-1.821	-5.183
92	1	5	0.013422818791946308	-6.101	-0.979	-5.879
93	1	5	0.013422818791946308	-6.231	-2.75	-5.752
94	1	3	0.013422818791946308	-7.289	-1.627	-4.194
95	1	5	0.013422818791946308	-8.161	-1.162	-4.66
96	1	5	0.013422818791946308	-7.582	-2.598	-3.786
97	1	3	0.013422818791946308	-6.682	-0.744	-3.089
98	1	4	0.013422818791946308	-6.826	0.306	-3.364
99	1	2	0.013422818791946308	-7.392	-0.973	-1.76
100	1	6	0.013422818791946308	-8.229	0.023	-1.395
101	1	10	0.013422818791946308	-8.281	0.835	-1.989
102	1	3	0.013422818791946308	-9.041	0.062	-0.168
103	1	4	0.013422818791946308	-8.359	-0.075	0.677
104	1	2	0.013422818791946308	-10.086	-1.04	-0.102
105	1	6	0.013422818791946308	-9.985	-1.859	0.966
106	1	10	0.013422818791946308	-9.175	-1.777	1.563
107	1	3	0.013422818791946308	-10.952	-2.906	1.316
108	1	4	0.013422818791946308	-11.489	-3.215	0.413
109	1	2	0.013422818791946308	-10.216	-4.13	1.812
110	1	1	0.013422818791946308	-9.336	-4.093	2.647
111	1	14	0.013422818791946308	-10.858	-5.229	1.537
112	1	15	0.013422818791946308	-10.372	-5.932	1.996
113	1	3	0.013422818791946308	-11.97	-2.464	2.398
114	1	5	0.013422818791946308	-12.434	-3.359	2.823
115	1	5	0.013422818791946308	-11.447	-1.961	3.215
116	1	3	0.013422818791946308	-13.098	-1.564	1.85
117	1	5	0.013422818791946308	-12.684	-0.622	1.48
118	1	5	0.013422818791946308	-13.581	-2.07	1.01
119	1	3	0.013422818791946308	-14.138	-1.283	2.957
120	1	4	0.013422818791946308	-14.421	-2.221	3.445
121	1	4	0.013422818791946308	-13.709	-0.615	3.709
122	1	7	0.013422818791946308	-15.359	-0.665	2.378
123	1	8	0.013422818791946308	-16.443	-0.547	2.203
124	1	9	0.013422818791946308	-17.248	-1.293	2.105
125	1	10	0.013422818791946308	-16.738	-2.15	1.893
126	1	10	0.013422818791946308	-18.231	-1.566	2.149
127	1	9	0.013422818791946308	-16.945	0.431	2.134
128	1	10	0.013422818791946308	-16.205	1.128	2.046
129	1	10	0.013422818791946308	-17.818	0.961	2.125
130	1	1	0.013422818791946308	-11.031	-1.097	-0.865
131	1	3	0.013422818791946308	-9.758	1.419	-0.005
132	1	5	0.013422818791946308	-10.491	1.543	-0.807
133	1	5	0.013422818791946308	-10.32	1.414	0.932
134	1	12	0.013422818791946308	-8.801	2.597	-0.008
135	1	12	0.013422818791946308	-8.597	3.332	-1.178
136	1	13	0.013422818791946308	-9.119	3.062	-2.093
137	1	12	0.013422818791946308	-7.721	4.415	-1.18
138	1	13	0.013422818791946308	-7.564	4.985	-2.093
139	1	12	0.013422818791946308	-7.047	4.769	-0.013
140	1	13	0.013422818791946308	-6.365	5.615	-0.015
141	1	12	0.013422818791946308	-7.247	4.037	1.155
142	1	13	0.013422818791946308	-6.719	4.312	2.065
143	1	12	0.013422818791946308	-8.121	2.952	1.158
144	1	13	0.013422818791946308	-8.269	2.384	2.074
145	1	1	0.013422818791946308	-7.26	-1.986	-1.1
146	1	1	0.013422818791946308	-4.707	0.236	-1.304
147	1	1	0.013422818791946308	-0.263	0.084	-3.091
148	1	1	0.013422818791946308	2.372	0.84	0.817
149	1	1	0.013422818791946308	6.494	2.295	-1.33


Bonds

1	1	1	2
2	2	2	3
3	3	2	39
4	4	3	4
5	5	3	5
6	6	3	14
7	7	5	6
8	7	5	7
9	5	5	8
10	7	8	9
11	7	8	10
12	5	8	11
13	4	11	12
14	4	11	13
15	6	11	14
16	3	14	15
17	2	15	16
18	1	15	38
19	4	16	17
20	5	16	18
21	8	16	35
22	7	18	19
23	7	18	20
24	5	18	21
25	7	21	22
26	7	21	23
27	5	21	24
28	4	24	25
29	4	24	26
30	9	24	27
31	10	27	28
32	11	28	29
33	11	28	32
34	12	29	30
35	12	29	31
36	12	32	33
37	12	32	34
38	13	35	36
39	13	35	37
40	6	39	40
41	6	39	49
42	4	40	41
43	4	40	42
44	5	40	43
45	7	43	44
46	7	43	45
47	5	43	46
48	7	46	47
49	7	46	48
50	5	46	49
51	4	49	50
52	2	49	51
53	3	51	52
54	1	51	149
55	14	52	53
56	6	52	54
57	4	54	55
58	4	54	56
59	2	54	57
60	3	57	58
61	1	57	148
62	14	58	59
63	6	58	60
64	4	60	61
65	5	60	62
66	2	60	76
67	7	62	63
68	7	62	64
69	15	62	65
70	16	65	66
71	16	65	74
72	17	66	67
73	16	66	68
74	17	68	69
75	16	68	70
76	17	70	71
77	16	70	72
78	17	72	73
79	16	72	74
80	17	74	75
81	3	76	77
82	1	76	147
83	14	77	78
84	6	77	79
85	4	79	80
86	5	79	81
87	2	79	86
88	4	81	82
89	4	81	83
90	18	81	84
91	19	84	85
92	3	86	87
93	1	86	146
94	6	87	88
95	6	87	97
96	4	88	89
97	4	88	90
98	5	88	91
99	7	91	92
100	7	91	93
101	5	91	94
102	7	94	95
103	7	94	96
104	5	94	97
105	4	97	98
106	2	97	99
107	3	99	100
108	1	99	145
109	14	100	101
110	6	100	102
111	4	102	103
112	2	102	104
113	5	102	131
114	3	104	105
115	1	104	130
116	14	105	106
117	6	105	107
118	4	107	108
119	2	107	109
120	5	107	113
121	1	109	110
122	20	109	111
123	19	111	112
124	7	113	114
125	7	113	115
126	5	113	116
127	7	116	117
128	7	116	118
129	5	116	119
130	4	119	120
131	4	119	121
132	9	119	122
133	10	122	123
134	11	123	124
135	11	123	127
136	12	124	125
137	12	124	126
138	12	127	128
139	12	127	129
140	7	131	132
141	7	131	133
142	15	131	134
143	16	134	135
144	16	134	143
145	17	135	136
146	16	135	137
147	17	137	138
148	16	137	139
149	17	139	140
150	16	139	141
151	17	141	142
152	16	141	143
153	17	143	144


Angles

1	1	3	2	1
2	2	39	2	1
3	3	39	2	3
4	4	4	3	2
5	5	5	3	2
6	6	5	3	4
7	7	14	3	2
8	8	14	3	4
9	9	14	3	5
10	10	6	5	3
11	10	7	5	3
12	11	7	5	6
13	12	8	5	3
14	10	8	5	6
15	10	8	5	7
16	10	9	8	5
17	10	10	8	5
18	11	10	8	9
19	12	11	8	5
20	10	11	8	9
21	10	11	8	10
22	6	12	11	8
23	6	13	11	8
24	13	13	11	12
25	14	11	14	3
26	9	14	11	8
27	8	14	11	12
28	8	14	11	13
29	15	15	14	3
30	15	15	14	11
31	3	16	15	14
32	2	38	15	14
33	1	38	15	16
34	4	17	16	15
35	5	18	16	15
36	6	18	16	17
37	16	35	16	15
38	17	35	16	17
39	18	35	16	18
40	10	19	18	16
41	10	20	18	16
42	11	20	18	19
43	12	21	18	16
44	10	21	18	19
45	10	21	18	20
46	10	22	21	18
47	10	23	21	18
48	11	23	21	22
49	12	24	21	18
50	10	24	21	22
51	10	24	21	23
52	6	25	24	21
53	6	26	24	21
54	13	26	24	25
55	19	27	24	21
56	20	27	24	25
57	20	27	24	26
58	21	28	27	24
59	22	29	28	27
60	22	32	28	27
61	23	32	28	29
62	24	30	29	28
63	24	31	29	28
64	25	31	29	30
65	24	33	32	28
66	24	34	32	28
67	25	34	32	33
68	26	36	35	16
69	26	37	35	16
70	27	37	35	36
71	15	40	39	2
72	15	49	39	2
73	14	49	39	40
74	8	41	40	39
75	8	42	40	39
76	13	42	40	41
77	9	43	40	39
78	6	43	40	41
79	6	43	40	42
80	10	44	43	40
81	10	45	43	40
82	11	45	43	44
83	12	46	43	40
84	10	46	43	44
85	10	46	43	45
86	10	47	46	43
87	10	48	46	43
88	11	48	46	47
89	9	46	49	39
90	12	49	46	43
91	10	49	46	47
92	10	49	46	48
93	8	50	49	39
94	6	50	49	46
95	7	51	49	39
96	5	51	49	46
97	4	51	49	50
98	3	52	51	49
99	1	149	51	49
100	2	149	51	52
101	28	53	52	51
102	15	54	52	51
103	29	54	52	53
104	8	55	54	52
105	8	56	54	52
106	13	56	54	55
107	7	57	54	52
108	4	57	54	55
109	4	57	54	56
110	3	58	57	54
111	1	148	57	54
112	2	148	57	58
113	28	59	58	57
114	15	60	58	57
115	29	60	58	59
116	8	61	60	58
117	9	62	60	58
118	6	62	60	61
119	7	76	60	58
120	4	76	60	61
121	5	76	60	62
122	10	63	62	60
123	10	64	62	60
124	11	64	62	63
125	30	65	62	60
126	31	65	62	63
127	31	65	62	64
128	32	66	65	62
129	32	74	65	62
130	33	74	65	66
131	34	67	66	65
132	33	68	66	65
133	34	68	66	67
134	34	69	68	66
135	33	70	68	66
136	34	70	68	69
137	34	71	70	68
138	33	72	70	68
139	34	72	70	71
140	34	73	72	70
141	33	72	74	65
142	33	74	72	70
143	34	74	72	73
144	34	75	74	65
145	34	75	74	72
146	3	77	76	60
147	1	147	76	60
148	2	147	76	77
149	28	78	77	76
150	15	79	77	76
151	29	79	77	78
152	8	80	79	77
153	9	81	79	77
154	6	81	79	80
155	7	86	79	77
156	4	86	79	80
157	5	86	79	81
158	6	82	81	79
159	6	83	81	79
160	13	83	81	82
161	35	84	81	79
162	36	84	81	82
163	36	84	81	83
164	37	85	84	81
165	3	87	86	79
166	1	146	86	79
167	2	146	86	87
168	15	88	87	86
169	15	97	87	86
170	14	97	87	88
171	8	89	88	87
172	8	90	88	87
173	13	90	88	89
174	9	91	88	87
175	6	91	88	89
176	6	91	88	90
177	10	92	91	88
178	10	93	91	88
179	11	93	91	92
180	12	94	91	88
181	10	94	91	92
182	10	94	91	93
183	10	95	94	91
184	10	96	94	91
185	11	96	94	95
186	9	94	97	87
187	12	97	94	91
188	10	97	94	95
189	10	97	94	96
190	8	98	97	87
191	6	98	97	94
192	7	99	97	87
193	5	99	97	94
194	4	99	97	98
195	3	100	99	97
196	1	145	99	97
197	2	145	99	100
198	28	101	100	99
199	15	102	100	99
200	29	102	100	101
201	8	103	102	100
202	7	104	102	100
203	4	104	102	103
204	9	131	102	100
205	6	131	102	103
206	5	131	102	104
207	3	105	104	102
208	1	130	104	102
209	2	130	104	105
210	28	106	105	104
211	15	107	105	104
212	29	107	105	106
213	8	108	107	105
214	7	109	107	105
215	4	109	107	108
216	9	113	107	105
217	6	113	107	108
218	5	113	107	109
219	1	110	109	107
220	38	111	109	107
221	39	111	109	110
222	40	112	111	109
223	10	114	113	107
224	10	115	113	107
225	11	115	113	114
226	12	116	113	107
227	10	116	113	114
228	10	116	113	115
229	10	117	116	113
230	10	118	116	113
231	11	118	116	117
232	12	119	116	113
233	10	119	116	117
234	10	119	116	118
235	6	120	119	116
236	6	121	119	116
237	13	121	119	120
238	19	122	119	116
239	20	122	119	120
240	20	122	119	121
241	21	123	122	119
242	22	124	123	122
243	22	127	123	122
244	23	127	123	124
245	24	125	124	123
246	24	126	124	123
247	25	126	124	125
248	24	128	127	123
249	24	129	127	123
250	25	129	127	128
251	10	132	131	102
252	10	133	131	102
253	11	133	131	132
254	30	134	131	102
255	31	134	131	132
256	31	134	131	133
257	32	135	134	131
258	32	143	134	131
259	33	143	134	135
260	34	136	135	134
261	33	137	135	134
262	34	137	135	136
263	34	138	137	135
264	33	139	137	135
265	34	139	137	138
266	34	140	139	137
267	33	141	139	137
268	34	141	139	140
269	34	142	141	139
270	33	141	143	134
271	33	143	141	139
272	34	143	141	142
273	34	144	143	134
274	34	144	143	141


Dihedrals

1	1	4	3	2	1
2	2	4	3	2	39
3	3	5	3	2	1
4	5	5	3	2	39
5	2	14	3	2	1
6	6	14	3	2	39
7	7	6	5	3	2
8	7	6	5	3	4
9	7	6	5	3	14
10	7	7	5	3	2
11	7	7	5	3	4
12	7	7	5	3	14
13	8	8	5	3	2
14	7	8	5	3	4
15	9	8	5	3	14
16	10	9	8	5	3
17	12	9	8	5	6
18	12	9	8	5	7
19	10	10	8	5	3
20	12	10	8	5	6
21	12	10	8	5	7
22	13	11	8	5	3
23	10	11	8	5	6
24	10	11	8	5	7
25	7	12	11	8	5
26	7	12	11	8	9
27	7	12	11	8	10
28	7	13	11	8	5
29	7	13	11	8	9
30	7	13	11	8	10
31	14	11	14	3	2
32	14	11	14	3	4
33	14	11	14	3	5
34	9	14	11	8	5
35	7	14	11	8	9
36	7	14	11	8	10
37	14	8	11	14	3
38	14	12	11	14	3
39	14	13	11	14	3
40	15	15	14	3	2
41	16	15	14	3	4
42	17	15	14	3	5
43	17	15	14	11	8
44	16	15	14	11	12
45	16	15	14	11	13
46	19	16	15	14	3
47	19	16	15	14	11
48	20	38	15	14	3
49	20	38	15	14	11
50	2	17	16	15	14
51	1	17	16	15	38
52	5	18	16	15	14
53	3	18	16	15	38
54	2	35	16	15	14
55	2	35	16	15	38
56	7	19	18	16	15
57	7	19	18	16	17
58	21	19	18	16	35
59	7	20	18	16	15
60	7	20	18	16	17
61	21	20	18	16	35
62	8	21	18	16	15
63	7	21	18	16	17
64	22	21	18	16	35
65	10	22	21	18	16
66	12	22	21	18	19
67	12	22	21	18	20
68	10	23	21	18	16
69	12	23	21	18	19
70	12	23	21	18	20
71	13	24	21	18	16
72	10	24	21	18	19
73	10	24	21	18	20
74	7	25	24	21	18
75	7	25	24	21	22
76	7	25	24	21	23
77	7	26	24	21	18
78	7	26	24	21	22
79	7	26	24	21	23
80	7	27	24	21	18
81	7	27	24	21	22
82	7	27	24	21	23
83	23	28	27	24	21
84	24	28	27	24	25
85	24	28	27	24	26
86	25	29	28	27	24
87	25	32	28	27	24
88	26	30	29	28	27
89	26	30	29	28	32
90	26	31	29	28	27
91	26	31	29	28	32
92	26	33	32	28	27
93	26	33	32	28	29
94	26	34	32	28	27
95	26	34	32	28	29
96	27	36	35	16	15
97	27	36	35	16	17
98	28	36	35	16	18
99	27	37	35	16	15
100	27	37	35	16	17
101	28	37	35	16	18
102	20	40	39	2	1
103	19	40	39	2	3
104	20	49	39	2	1
105	19	49	39	2	3
106	16	41	40	39	2
107	14	41	40	39	49
108	16	42	40	39	2
109	14	42	40	39	49
110	17	43	40	39	2
111	14	43	40	39	49
112	7	44	43	40	39
113	7	44	43	40	41
114	7	44	43	40	42
115	7	45	43	40	39
116	7	45	43	40	41
117	7	45	43	40	42
118	9	46	43	40	39
119	7	46	43	40	41
120	7	46	43	40	42
121	10	47	46	43	40
122	12	47	46	43	44
123	12	47	46	43	45
124	10	48	46	43	40
125	12	48	46	43	44
126	12	48	46	43	45
127	17	46	49	39	2
128	14	46	49	39	40
129	13	49	46	43	40
130	10	49	46	43	44
131	10	49	46	43	45
132	9	43	46	49	39
133	7	47	46	49	39
134	7	48	46	49	39
135	16	50	49	39	2
136	14	50	49	39	40
137	7	50	49	46	43
138	7	50	49	46	47
139	7	50	49	46	48
140	15	51	49	39	2
141	14	51	49	39	40
142	8	51	49	46	43
143	7	51	49	46	47
144	7	51	49	46	48
145	6	52	51	49	39
146	5	52	51	49	46
147	2	52	51	49	50
148	2	149	51	49	39
149	3	149	51	49	46
150	1	149	51	49	50
151	20	53	52	51	49
152	29	53	52	51	149
153	19	54	52	51	49
154	20	54	52	51	149
155	16	55	54	52	51
156	14	55	54	52	53
157	16	56	54	52	51
158	14	56	54	52	53
159	15	57	54	52	51
160	14	57	54	52	53
161	6	58	57	54	52
162	2	58	57	54	55
163	2	58	57	54	56
164	2	148	57	54	52
165	1	148	57	54	55
166	1	148	57	54	56
167	20	59	58	57	54
168	29	59	58	57	148
169	19	60	58	57	54
170	20	60	58	57	148
171	16	61	60	58	57
172	14	61	60	58	59
173	17	62	60	58	57
174	14	62	60	58	59
175	15	76	60	58	57
176	14	76	60	58	59
177	7	63	62	60	58
178	7	63	62	60	61
179	7	63	62	60	76
180	7	64	62	60	58
181	7	64	62	60	61
182	7	64	62	60	76
183	30	65	62	60	58
184	7	65	62	60	61
185	31	65	62	60	76
186	32	66	65	62	60
187	33	66	65	62	63
188	33	66	65	62	64
189	32	74	65	62	60
190	33	74	65	62	63
191	33	74	65	62	64
192	34	67	66	65	62
193	34	67	66	65	74
194	34	68	66	65	62
195	34	68	66	65	74
196	34	69	68	66	65
197	34	69	68	66	67
198	34	70	68	66	65
199	34	70	68	66	67
200	34	71	70	68	66
201	34	71	70	68	69
202	34	72	70	68	66
203	34	72	70	68	69
204	34	73	72	70	68
205	34	73	72	70	71
206	34	72	74	65	62
207	34	72	74	65	66
208	34	74	72	70	68
209	34	74	72	70	71
210	34	70	72	74	65
211	34	73	72	74	65
212	34	75	74	65	62
213	34	75	74	65	66
214	34	75	74	72	70
215	34	75	74	72	73
216	6	77	76	60	58
217	2	77	76	60	61
218	5	77	76	60	62
219	2	147	76	60	58
220	1	147	76	60	61
221	3	147	76	60	62
222	20	78	77	76	60
223	29	78	77	76	147
224	19	79	77	76	60
225	20	79	77	76	147
226	16	80	79	77	76
227	14	80	79	77	78
228	17	81	79	77	76
229	14	81	79	77	78
230	15	86	79	77	76
231	14	86	79	77	78
232	7	82	81	79	77
233	7	82	81	79	80
234	7	82	81	79	86
235	7	83	81	79	77
236	7	83	81	79	80
237	7	83	81	79	86
238	35	84	81	79	77
239	36	84	81	79	80
240	37	84	81	79	86
241	38	85	84	81	79
242	39	85	84	81	82
243	39	85	84	81	83
244	6	87	86	79	77
245	2	87	86	79	80
246	5	87	86	79	81
247	2	146	86	79	77
248	1	146	86	79	80
249	3	146	86	79	81
250	19	88	87	86	79
251	20	88	87	86	146
252	19	97	87	86	79
253	20	97	87	86	146
254	16	89	88	87	86
255	14	89	88	87	97
256	16	90	88	87	86
257	14	90	88	87	97
258	17	91	88	87	86
259	14	91	88	87	97
260	7	92	91	88	87
261	7	92	91	88	89
262	7	92	91	88	90
263	7	93	91	88	87
264	7	93	91	88	89
265	7	93	91	88	90
266	9	94	91	88	87
267	7	94	91	88	89
268	7	94	91	88	90
269	10	95	94	91	88
270	12	95	94	91	92
271	12	95	94	91	93
272	10	96	94	91	88
273	12	96	94	91	92
274	12	96	94	91	93
275	17	94	97	87	86
276	14	94	97	87	88
277	13	97	94	91	88
278	10	97	94	91	92
279	10	97	94	91	93
280	9	91	94	97	87
281	7	95	94	97	87
282	7	96	94	97	87
283	16	98	97	87	86
284	14	98	97	87	88
285	7	98	97	94	91
286	7	98	97	94	95
287	7	98	97	94	96
288	15	99	97	87	86
289	14	99	97	87	88
290	8	99	97	94	91
291	7	99	97	94	95
292	7	99	97	94	96
293	6	100	99	97	87
294	5	100	99	97	94
295	2	100	99	97	98
296	2	145	99	97	87
297	3	145	99	97	94
298	1	145	99	97	98
299	20	101	100	99	97
300	29	101	100	99	145
301	19	102	100	99	97
302	20	102	100	99	145
303	16	103	102	100	99
304	14	103	102	100	101
305	15	104	102	100	99
306	14	104	102	100	101
307	17	131	102	100	99
308	14	131	102	100	101
309	6	105	104	102	100
310	2	105	104	102	103
311	5	105	104	102	131
312	2	130	104	102	100
313	1	130	104	102	103
314	3	130	104	102	131
315	20	106	105	104	102
316	29	106	105	104	130
317	19	107	105	104	102
318	20	107	105	104	130
319	16	108	107	105	104
320	14	108	107	105	106
321	15	109	107	105	104
322	14	109	107	105	106
323	17	113	107	105	104
324	14	113	107	105	106
325	2	110	109	107	105
326	1	110	109	107	108
327	3	110	109	107	113
328	2	111	109	107	105
329	2	111	109	107	108
330	2	111	109	107	113
331	40	112	111	109	107
332	41	112	111	109	110
333	7	114	113	107	105
334	7	114	113	107	108
335	7	114	113	107	109
336	7	115	113	107	105
337	7	115	113	107	108
338	7	115	113	107	109
339	9	116	113	107	105
340	7	116	113	107	108
341	8	116	113	107	109
342	10	117	116	113	107
343	12	117	116	113	114
344	12	117	116	113	115
345	10	118	116	113	107
346	12	118	116	113	114
347	12	118	116	113	115
348	13	119	116	113	107
349	10	119	116	113	114
350	10	119	116	113	115
351	7	120	119	116	113
352	7	120	119	116	117
353	7	120	119	116	118
354	7	121	119	116	113
355	7	121	119	116	117
356	7	121	119	116	118
357	7	122	119	116	113
358	7	122	119	116	117
359	7	122	119	116	118
360	23	123	122	119	116
361	24	123	122	119	120
362	24	123	122	119	121
363	25	124	123	122	119
364	25	127	123	122	119
365	26	125	124	123	122
366	26	125	124	123	127
367	26	126	124	123	122
368	26	126	124	123	127
369	26	128	127	123	122
370	26	128	127	123	124
371	26	129	127	123	122
372	26	129	127	123	124
373	7	132	131	102	100
374	7	132	131	102	103
375	7	132	131	102	104
376	7	133	131	102	100
377	7	133	131	102	103
378	7	133	131	102	104
379	30	134	131	102	100
380	7	134	131	102	103
381	31	134	131	102	104
382	32	135	134	131	102
383	33	135	134	131	132
384	33	135	134	131	133
385	32	143	134	131	102
386	33	143	134	131	132
387	33	143	134	131	133
388	34	136	135	134	131
389	34	136	135	134	143
390	34	137	135	134	131
391	34	137	135	134	143
392	34	138	137	135	134
393	34	138	137	135	136
394	34	139	137	135	134
395	34	139	137	135	136
396	34	140	139	137	135
397	34	140	139	137	138
398	34	141	139	137	135
399	34	141	139	137	138
400	34	142	141	139	137
401	34	142	141	139	140
402	34	141	143	134	131
403	34	141	143	134	135
404	34	143	141	139	137
405	34	143	141	139	140
406	34	139	141	143	134
407	34	142	141	143	134
408	34	144	143	134	131
409	34	144	143	134	135
410	34	144	143	141	139
411	34	144	143	141	142
