
15	atoms
14	bonds
25	angles
30	dihedrals

5	atom types
5	bond types
8	angle types
9	dihedral types

-300.0 300.0 xlo xhi
-300.0 300.0 ylo yhi
-300.0 300.0 zlo zhi

Masses

1	12.01	#c3
2	1.008	#hc
3	16.0	#oh
4	1.008	#ho
5	1.008	#h1

Pair Coeffs

1	0.1078	3.39770953124	#c3
2	0.0208	2.60017699876	#hc
3	0.093	3.24287133403	#oh
4	0.0047	0.537924646013	#ho
5	0.0208	2.42199725514	#h1

Bond Coeffs

1	232.52	1.538	#c3-c3
2	375.92	1.097	#c3-hc
3	293.4	1.423	#c3-oh
4	375.92	1.097	#c3-h1
5	563.51	0.973	#ho-oh

Angle Coeffs

1	46.816	109.8	#c3-c3-hc
2	38.96	107.58	#hc-c3-hc
3	64.888	111.51	#c3-c3-c3
4	84.642	110.19	#c3-c3-oh
5	46.868	109.56	#c3-c3-h1
6	62.54	110.26	#h1-c3-oh
7	38.802	108.46	#h1-c3-h1
8	49.027	107.26	#c3-oh-ho

Dihedral Coeffs

1	1	0.08	3	0.0	#hc-c3-c3-c3
2	1	0.08	3	0.0	#c3-c3-c3-hc
3	1	0.12	3	0.0	#hc-c3-c3-hc
4	3	0.13	3	0.0	0.29	2	180.0	0.11	1	0.0	#c3-c3-c3-c3
5	1	0.21	3	0.0	#oh-c3-c3-c3
6	2	0.18	3	0.0	0.51	1	0.0	#hc-c3-c3-oh
7	1	0.155555555556	3	0.0	#X-c3-c3-X
8	1	0.0	3	0.0	#ho-oh-c3-c3
9	1	0.113	3	0.0	#ho-oh-c3-h1




Atoms

1	1	1	-0.122843	-4.887	-0.757	0.004
2	1	1	0.006933	-3.882	0.388	-0.119
3	1	2	0.028406	-4.725	-1.504	-0.768
4	1	2	0.028406	-5.906	-0.397	-0.091
5	1	2	0.028406	-4.798	-1.253	0.966
6	1	1	0.026393	-2.432	-0.082	0.01
7	1	2	0.001219	-4.093	1.134	0.645
8	1	2	0.001219	-4.02	0.885	-1.077
9	1	1	0.191712	-1.43	1.052	-0.111
10	1	2	0.036317	-2.209	-0.82	-0.755
11	1	2	0.036317	-2.282	-0.571	0.969
12	1	3	-0.703501	-0.14	0.513	0.021
13	1	4	0.439457	0.503	1.204	-0.052
14	1	5	0.000779	-1.614	1.797	0.661
15	1	5	0.000779	-1.541	1.547	-1.075


Bonds

1	1	1	2
2	2	1	3
3	2	1	4
4	2	1	5
5	1	2	6
6	2	2	7
7	2	2	8
8	1	6	9
9	2	6	10
10	2	6	11
11	3	9	12
12	4	9	14
13	4	9	15
14	5	12	13


Angles

1	1	3	1	2
2	1	4	1	2
3	2	4	1	3
4	1	5	1	2
5	2	5	1	3
6	2	5	1	4
7	3	6	2	1
8	1	7	2	1
9	1	7	2	6
10	1	8	2	1
11	1	8	2	6
12	2	8	2	7
13	3	9	6	2
14	1	10	6	2
15	1	10	6	9
16	1	11	6	2
17	1	11	6	9
18	2	11	6	10
19	4	12	9	6
20	5	14	9	6
21	6	14	9	12
22	5	15	9	6
23	6	15	9	12
24	7	15	9	14
25	8	13	12	9


Dihedrals

1	1	6	2	1	3
2	1	6	2	1	4
3	1	6	2	1	5
4	3	7	2	1	3
5	3	7	2	1	4
6	3	7	2	1	5
7	3	8	2	1	3
8	3	8	2	1	4
9	3	8	2	1	5
10	4	9	6	2	1
11	1	9	6	2	7
12	1	9	6	2	8
13	1	10	6	2	1
14	3	10	6	2	7
15	3	10	6	2	8
16	1	11	6	2	1
17	3	11	6	2	7
18	3	11	6	2	8
19	5	12	9	6	2
20	6	12	9	6	10
21	6	12	9	6	11
22	7	14	9	6	2
23	7	14	9	6	10
24	7	14	9	6	11
25	7	15	9	6	2
26	7	15	9	6	10
27	7	15	9	6	11
28	8	13	12	9	6
29	9	13	12	9	14
30	9	13	12	9	15
