
9	atoms
8	bonds
13	angles
12	dihedrals

5	atom types
5	bond types
7	angle types
4	dihedral types

-300.0 300.0 xlo xhi
-300.0 300.0 ylo yhi
-300.0 300.0 zlo zhi

Masses

1	12.01	#c3
2	1.008	#hc
3	16.0	#oh
4	1.008	#ho
5	1.008	#h1

Pair Coeffs

1	0.1078	3.39770953124	#c3
2	0.0208	2.60017699876	#hc
3	0.093	3.24287133403	#oh
4	0.0047	0.537924646013	#ho
5	0.0208	2.42199725514	#h1

Bond Coeffs

1	232.52	1.538	#c3-c3
2	375.92	1.097	#c3-hc
3	293.4	1.423	#c3-oh
4	375.92	1.097	#c3-h1
5	563.51	0.973	#ho-oh

Angle Coeffs

1	46.816	109.8	#c3-c3-hc
2	38.96	107.58	#hc-c3-hc
3	84.642	110.19	#c3-c3-oh
4	46.868	109.56	#c3-c3-h1
5	62.54	110.26	#h1-c3-oh
6	38.802	108.46	#h1-c3-h1
7	49.027	107.26	#c3-oh-ho

Dihedral Coeffs

1	2	0.18	3	0.0	0.51	1	0.0	#hc-c3-c3-oh
2	1	0.155555555556	3	0.0	#X-c3-c3-X
3	1	0.0	3	0.0	#ho-oh-c3-c3
4	1	0.113	3	0.0	#ho-oh-c3-h1




Atoms

1	1	1	-0.125394	-6.728	2.967	-0.054
2	1	1	0.347898	-5.302	2.456	-0.002
3	1	2	0.038532	-7.001	3.218	-1.073
4	1	2	0.038532	-6.831	3.859	0.555
5	1	2	0.038532	-7.418	2.214	0.314
6	1	3	-0.693469	-4.459	3.469	-0.489
7	1	4	0.414867	-3.56	3.174	-0.467
8	1	5	-0.029749	-5.206	1.555	-0.606
9	1	5	-0.029749	-5.036	2.195	1.02


Bonds

1	1	1	2
2	2	1	3
3	2	1	4
4	2	1	5
5	3	2	6
6	4	2	8
7	4	2	9
8	5	6	7


Angles

1	1	3	1	2
2	1	4	1	2
3	2	4	1	3
4	1	5	1	2
5	2	5	1	3
6	2	5	1	4
7	3	6	2	1
8	4	8	2	1
9	5	8	2	6
10	4	9	2	1
11	5	9	2	6
12	6	9	2	8
13	7	7	6	2


Dihedrals

1	1	6	2	1	3
2	1	6	2	1	4
3	1	6	2	1	5
4	2	8	2	1	3
5	2	8	2	1	4
6	2	8	2	1	5
7	2	9	2	1	3
8	2	9	2	1	4
9	2	9	2	1	5
10	3	7	6	2	1
11	4	7	6	2	8
12	4	7	6	2	9
