
6	atoms
5	bonds
7	angles
3	dihedrals

4	atom types
3	bond types
3	angle types
1	dihedral types

-300.0 300.0 xlo xhi
-300.0 300.0 ylo yhi
-300.0 300.0 zlo zhi

Masses

1	12.01	#c3
2	16.0	#oh
3	1.008	#ho
4	1.008	#h1

Pair Coeffs

1	0.1078	3.39770953124	#c3
2	0.093	3.24287133403	#oh
3	0.0047	0.537924646013	#ho
4	0.0208	2.42199725514	#h1

Bond Coeffs

1	293.4	1.423	#c3-oh
2	375.92	1.097	#c3-h1
3	563.51	0.973	#ho-oh

Angle Coeffs

1	62.54	110.26	#h1-c3-oh
2	38.802	108.46	#h1-c3-h1
3	49.027	107.26	#c3-oh-ho

Dihedral Coeffs

1	1	0.113	3	0.0	#ho-oh-c3-h1




Atoms

1	1	1	0.143706	-8.803	2.023	0.005
2	1	2	-0.660896	-7.568	1.366	-0.016
3	1	3	0.426169	-6.873	1.998	0.098
4	1	4	0.03034	-9.568	1.271	-0.127
5	1	4	0.03034	-8.893	2.749	-0.799
6	1	4	0.03034	-8.98	2.529	0.952


Bonds

1	1	1	2
2	2	1	4
3	2	1	5
4	2	1	6
5	3	2	3


Angles

1	1	4	1	2
2	1	5	1	2
3	2	5	1	4
4	1	6	1	2
5	2	6	1	4
6	2	6	1	5
7	3	3	2	1


Dihedrals

1	1	3	2	1	4
2	1	3	2	1	5
3	1	3	2	1	6
