
29	atoms
28	bonds
49	angles
68	dihedrals

11	atom types
12	bond types
23	angle types
21	dihedral types

-300.0 300.0 xlo xhi
-300.0 300.0 ylo yhi
-300.0 300.0 zlo zhi

Masses

1	12.01	#c3
2	14.01	#n4
3	14.01	#n3
4	1.008	#h1
5	1.008	#hc
6	12.01	#c
7	16.0	#o
8	16.0	#oh
9	1.008	#hn
10	1.008	#ho
11	1.008	#hx

Pair Coeffs

1	0.1078	3.39770953124	#c3
2	3.8748	2.49950544361	#n4
3	0.0858	3.36510263816	#n3
4	0.0208	2.42199725514	#h1
5	0.0208	2.60017699876	#hc
6	0.0988	3.31521230994	#c
7	0.1463	3.04812087425	#o
8	0.093	3.24287133403	#oh
9	0.01	1.10649620793	#hn
10	0.0047	0.537924646013	#ho
11	0.0208	1.88745802425	#hx

Bond Coeffs

1	222.58	1.511	#c3-n4
2	261.19	1.465	#c3-n3
3	386.49	1.091	#c3-hx
4	482.87	1.03	#hn-n4
5	511.28	1.019	#hn-n3
6	232.52	1.538	#c3-c3
7	375.92	1.097	#c3-h1
8	375.92	1.097	#c3-hc
9	243.22	1.524	#c-c3
10	652.57	1.218	#c-o
11	383.13	1.351	#c-oh
12	563.51	0.973	#ho-oh

Angle Coeffs

1	106.945	111.23	#n3-c3-n4
2	106.945	111.23	#n3-c3-n3
3	60.076	108.01	#hx-c3-n4
4	60.702	111.73	#hx-c3-n3
5	46.193	110.11	#c3-n4-hn
6	40.02	108.3	#hn-n4-hn
7	47.782	109.29	#c3-n3-hn
8	40.828	106.4	#hn-n3-hn
9	65.697	112.35	#c3-n3-c3
10	83.305	111.04	#c3-c3-n3
11	61.163	109.88	#h1-c3-n3
12	46.868	109.56	#c3-c3-h1
13	38.802	108.46	#h1-c3-h1
14	64.888	111.51	#c3-c3-c3
15	46.816	109.8	#c3-c3-hc
16	38.96	107.58	#hc-c3-hc
17	65.307	111.04	#c-c3-c3
18	83.673	111.14	#c-c3-n3
19	47.531	108.22	#c-c3-h1
20	84.552	123.2	#c3-c-o
21	85.803	112.73	#c3-c-oh
22	115.745	122.1	#o-c-oh
23	51.617	106.55	#c-oh-ho

Dihedral Coeffs

1	1	0.155555555556	3	0.0	#X-c3-n4-X
2	1	0.109	3	0.0	#hn-n4-c3-hx
3	1	0.3	3	0.0	#X-c3-n3-X
4	1	1.75	2	0.0	#n3-c3-n3-hn
5	2	0.58	3	0.0	0.28	2	180.0	#c3-n3-c3-c3
6	1	0.217	3	0.0	#hn-n3-c3-c3
7	1	0.225	3	0.0	#h1-c3-n3-c3
8	1	0.21	3	0.0	#n3-c3-c3-c3
9	1	0.155555555556	3	0.0	#X-c3-c3-X
10	1	0.1	3	0.0	#hc-c3-c3-n3
11	3	0.13	3	0.0	0.29	2	180.0	0.11	1	0.0	#c3-c3-c3-c3
12	1	0.08	3	0.0	#hc-c3-c3-c3
13	1	0.08	3	0.0	#c3-c3-c3-hc
14	1	0.12	3	0.0	#hc-c3-c3-hc
15	1	0.1	3	0.0	#c-c3-c3-c3
16	1	0.27	2	180.0	#o-c-c3-c3
17	3	0.03	2	180.0	0.55	3	180.0	0.74	1	0.0	#c3-c3-c-o
18	1	0.0	2	180.0	#X-c-c3-X
19	2	0.8	1	0.0	0.08	3	180.0	#h1-c3-c-o
20	1	1.78	2	180.0	#ho-oh-c-c3
21	2	2.3	2	180.0	1.9	1	0.0	#ho-oh-c-o




Atoms

1	1	1	0.139369	4.996	-2.046	0.49
2	1	2	-1.007918	4.638	-3.559	0.359
3	1	3	-1.007918	5.281	-1.853	1.862
4	1	3	-0.483042	3.945	-1.356	-0.153
5	1	1	-0.059232	2.769	-0.933	0.608
6	1	1	0.313039	1.673	-0.463	-0.342
7	1	4	0.054394	3.012	-0.147	1.321
8	1	4	0.054394	2.401	-1.782	1.181
9	1	1	-0.052049	0.422	0.0	0.403
10	1	5	-0.041562	1.415	-1.266	-1.021
11	1	5	-0.041562	2.056	0.358	-0.946
12	1	1	0.17847	-0.734	0.318	-0.562
13	1	5	0.005263	0.645	0.878	1.002
14	1	5	0.005263	0.088	-0.779	1.086
15	1	6	0.783064	-1.88	0.943	0.223
16	1	7	-0.61243	-2.896	0.387	0.482
17	1	8	-0.61243	-1.606	2.179	0.616
18	1	3	-0.917555	-1.135	-0.87	-1.279
19	1	4	0.022195	-0.392	1.062	-1.274
20	1	9	0.301662	4.287	-0.635	-0.753
21	1	9	0.367655	-1.736	-1.427	-0.702
22	1	9	0.367655	-1.668	-0.633	-2.091
23	1	10	0.425127	-2.343	2.518	1.109
24	1	9	0.510572	6.138	-1.372	2.032
25	1	9	0.510572	4.542	-1.446	2.395
26	1	11	0.265291	5.9	-1.955	-0.093
27	1	9	0.510572	4.467	-3.802	-0.604
28	1	9	0.510572	3.798	-3.758	0.881
29	1	9	0.510572	5.372	-4.135	0.742


Bonds

1	1	1	2
2	2	1	3
3	2	1	4
4	3	1	26
5	4	2	27
6	4	2	28
7	4	2	29
8	5	3	24
9	5	3	25
10	2	4	5
11	5	4	20
12	6	5	6
13	7	5	7
14	7	5	8
15	6	6	9
16	8	6	10
17	8	6	11
18	6	9	12
19	8	9	13
20	8	9	14
21	9	12	15
22	2	12	18
23	7	12	19
24	10	15	16
25	11	15	17
26	12	17	23
27	5	18	21
28	5	18	22


Angles

1	1	3	1	2
2	1	4	1	2
3	2	4	1	3
4	3	26	1	2
5	4	26	1	3
6	4	26	1	4
7	5	27	2	1
8	5	28	2	1
9	6	28	2	27
10	5	29	2	1
11	6	29	2	27
12	6	29	2	28
13	7	24	3	1
14	7	25	3	1
15	8	25	3	24
16	9	5	4	1
17	7	20	4	1
18	7	20	4	5
19	10	6	5	4
20	11	7	5	4
21	12	7	5	6
22	11	8	5	4
23	12	8	5	6
24	13	8	5	7
25	14	9	6	5
26	15	10	6	5
27	15	10	6	9
28	15	11	6	5
29	15	11	6	9
30	16	11	6	10
31	14	12	9	6
32	15	13	9	6
33	15	13	9	12
34	15	14	9	6
35	15	14	9	12
36	16	14	9	13
37	17	15	12	9
38	10	18	12	9
39	18	18	12	15
40	12	19	12	9
41	19	19	12	15
42	11	19	12	18
43	20	16	15	12
44	21	17	15	12
45	22	17	15	16
46	23	23	17	15
47	7	21	18	12
48	7	22	18	12
49	8	22	18	21


Dihedrals

1	1	27	2	1	3
2	1	27	2	1	4
3	2	27	2	1	26
4	1	28	2	1	3
5	1	28	2	1	4
6	2	28	2	1	26
7	1	29	2	1	3
8	1	29	2	1	4
9	2	29	2	1	26
10	3	24	3	1	2
11	4	24	3	1	4
12	3	24	3	1	26
13	3	25	3	1	2
14	4	25	3	1	4
15	3	25	3	1	26
16	3	5	4	1	2
17	3	5	4	1	3
18	3	5	4	1	26
19	3	20	4	1	2
20	4	20	4	1	3
21	3	20	4	1	26
22	5	6	5	4	1
23	6	6	5	4	20
24	7	7	5	4	1
25	3	7	5	4	20
26	7	8	5	4	1
27	3	8	5	4	20
28	8	9	6	5	4
29	9	9	6	5	7
30	9	9	6	5	8
31	10	10	6	5	4
32	9	10	6	5	7
33	9	10	6	5	8
34	10	11	6	5	4
35	9	11	6	5	7
36	9	11	6	5	8
37	11	12	9	6	5
38	12	12	9	6	10
39	12	12	9	6	11
40	12	13	9	6	5
41	14	13	9	6	10
42	14	13	9	6	11
43	12	14	9	6	5
44	14	14	9	6	10
45	14	14	9	6	11
46	15	15	12	9	6
47	9	15	12	9	13
48	9	15	12	9	14
49	8	18	12	9	6
50	10	18	12	9	13
51	10	18	12	9	14
52	9	19	12	9	6
53	9	19	12	9	13
54	9	19	12	9	14
55	16	16	15	12	9
56	18	16	15	12	18
57	19	16	15	12	19
58	18	17	15	12	9
59	18	17	15	12	18
60	18	17	15	12	19
61	20	23	17	15	12
62	21	23	17	15	16
63	6	21	18	12	9
64	3	21	18	12	15
65	3	21	18	12	19
66	6	22	18	12	9
67	3	22	18	12	15
68	3	22	18	12	19
