
11	atoms
10	bonds
16	angles
17	dihedrals

8	atom types
7	bond types
10	angle types
5	dihedral types

-300.0 300.0 xlo xhi
-300.0 300.0 ylo yhi
-300.0 300.0 zlo zhi

Masses

1	14.01	#n4
2	12.01	#c3
3	1.008	#hn
4	12.01	#c
5	16.0	#oh
6	1.008	#hx
7	16.0	#o
8	1.008	#ho

Pair Coeffs

1	3.8748	2.49950544361	#n4
2	0.1078	3.39770953124	#c3
3	0.01	1.10649620793	#hn
4	0.0988	3.31521230994	#c
5	0.093	3.24287133403	#oh
6	0.0208	1.88745802425	#hx
7	0.1463	3.04812087425	#o
8	0.0047	0.537924646013	#ho

Bond Coeffs

1	222.58	1.511	#c3-n4
2	482.87	1.03	#hn-n4
3	243.22	1.524	#c-c3
4	386.49	1.091	#c3-hx
5	383.13	1.351	#c-oh
6	652.57	1.218	#c-o
7	563.51	0.973	#ho-oh

Angle Coeffs

1	46.193	110.11	#c3-n4-hn
2	40.02	108.3	#hn-n4-hn
3	82.611	110.73	#c-c3-n4
4	60.076	108.01	#hx-c3-n4
5	47.419	108.85	#c-c3-hx
6	38.782	109.75	#hx-c3-hx
7	85.803	112.73	#c3-c-oh
8	84.552	123.2	#c3-c-o
9	115.745	122.1	#o-c-oh
10	51.617	106.55	#c-oh-ho

Dihedral Coeffs

1	1	0.155555555556	3	0.0	#X-c3-n4-X
2	1	0.109	3	0.0	#hn-n4-c3-hx
3	1	0.0	2	180.0	#X-c-c3-X
4	1	1.78	2	180.0	#ho-oh-c-c3
5	2	2.3	2	180.0	1.9	1	0.0	#ho-oh-c-o




Atoms

1	1	1	-0.359175	-1.06	-0.326	0.343
2	1	2	0.023218	0.11	0.562	0.065
3	1	3	0.336897	-1.843	0.185	0.722
4	1	3	0.336897	-0.806	-1.06	0.992
5	1	4	0.72918	1.209	-0.321	-0.495
6	1	5	-0.619242	2.277	0.367	-0.77
7	1	6	0.127514	0.418	1.036	0.987
8	1	6	0.127514	-0.185	1.321	-0.646
9	1	7	-0.547209	1.04	-1.485	-0.636
10	1	3	0.336897	-1.357	-0.8	-0.499
11	1	8	0.507511	2.968	-0.186	-1.122


Bonds

1	1	1	2
2	2	1	3
3	2	1	4
4	2	1	10
5	3	2	5
6	4	2	7
7	4	2	8
8	5	5	6
9	6	5	9
10	7	6	11


Angles

1	1	3	1	2
2	1	4	1	2
3	2	4	1	3
4	1	10	1	2
5	2	10	1	3
6	2	10	1	4
7	3	5	2	1
8	4	7	2	1
9	5	7	2	5
10	4	8	2	1
11	5	8	2	5
12	6	8	2	7
13	7	6	5	2
14	8	9	5	2
15	9	9	5	6
16	10	11	6	5


Dihedrals

1	1	5	2	1	3
2	1	5	2	1	4
3	1	5	2	1	10
4	2	7	2	1	3
5	2	7	2	1	4
6	2	7	2	1	10
7	2	8	2	1	3
8	2	8	2	1	4
9	2	8	2	1	10
10	3	6	5	2	1
11	3	6	5	2	7
12	3	6	5	2	8
13	3	9	5	2	1
14	3	9	5	2	7
15	3	9	5	2	8
16	4	11	6	5	2
17	5	11	6	5	9
