
13	atoms
12	bonds
21	angles
21	dihedrals

4	atom types
4	bond types
6	angle types
7	dihedral types

-300.0 300.0 xlo xhi
-300.0 300.0 ylo yhi
-300.0 300.0 zlo zhi

Masses

1	12.01	#c3
2	12.01	#c
3	1.008	#hc
4	16.0	#o

Pair Coeffs

1	0.1078	3.39770953124	#c3
2	0.0988	3.31521230994	#c
3	0.0208	2.60017699876	#hc
4	0.1463	3.04812087425	#o

Bond Coeffs

1	243.22	1.524	#c-c3
2	375.92	1.097	#c3-hc
3	652.57	1.218	#c-o
4	232.52	1.538	#c3-c3

Angle Coeffs

1	47.411	108.77	#c-c3-hc
2	38.96	107.58	#hc-c3-hc
3	64.041	116.5	#c3-c-c3
4	84.552	123.2	#c3-c-o
5	65.307	111.04	#c-c3-c3
6	46.816	109.8	#c3-c3-hc

Dihedral Coeffs

1	1	0.0	2	0.0	#hc-c3-c-c3
2	2	0.83	1	0.0	0.04	3	180.0	#o-c-c3-hc
3	1	0.332	2	180.0	#c3-c-c3-c3
4	1	0.27	2	180.0	#o-c-c3-c3
5	3	0.03	2	180.0	0.55	3	180.0	0.74	1	0.0	#c3-c3-c-o
6	1	0.155555555556	3	0.0	#X-c3-c3-X
7	1	0.12	3	0.0	#hc-c3-c3-hc




Atoms

1	1	1	-0.289032	-4.894	-0.637	0.026
2	1	2	0.623944	-3.807	0.413	-0.074
3	1	3	0.074207	-4.787	-1.37	-0.768
4	1	3	0.074207	-5.864	-0.166	-0.045
5	1	3	0.074207	-4.819	-1.171	0.969
6	1	1	0.001597	-2.375	-0.085	0.01
7	1	1	-0.18204	-1.336	1.024	-0.099
8	1	3	0.007361	-2.233	-0.826	-0.775
9	1	3	0.007361	-2.265	-0.629	0.946
10	1	3	0.052062	-1.459	1.75	0.695
11	1	3	0.052062	-1.427	1.551	-1.041
12	1	3	0.052062	-0.335	0.611	-0.033
13	1	4	-0.547996	-4.069	1.569	-0.212


Bonds

1	1	1	2
2	2	1	3
3	2	1	4
4	2	1	5
5	1	2	6
6	3	2	13
7	4	6	7
8	2	6	8
9	2	6	9
10	2	7	10
11	2	7	11
12	2	7	12


Angles

1	1	3	1	2
2	1	4	1	2
3	2	4	1	3
4	1	5	1	2
5	2	5	1	3
6	2	5	1	4
7	3	6	2	1
8	4	13	2	1
9	4	13	2	6
10	5	7	6	2
11	1	8	6	2
12	6	8	6	7
13	1	9	6	2
14	6	9	6	7
15	2	9	6	8
16	6	10	7	6
17	6	11	7	6
18	2	11	7	10
19	6	12	7	6
20	2	12	7	10
21	2	12	7	11


Dihedrals

1	1	6	2	1	3
2	1	6	2	1	4
3	1	6	2	1	5
4	2	13	2	1	3
5	2	13	2	1	4
6	2	13	2	1	5
7	3	7	6	2	1
8	4	7	6	2	13
9	1	8	6	2	1
10	2	8	6	2	13
11	1	9	6	2	1
12	2	9	6	2	13
13	6	10	7	6	2
14	7	10	7	6	8
15	7	10	7	6	9
16	6	11	7	6	2
17	7	11	7	6	8
18	7	11	7	6	9
19	6	12	7	6	2
20	7	12	7	6	8
21	7	12	7	6	9
