
15	atoms
15	bonds
24	angles
30	dihedrals

4	atom types
4	bond types
5	angle types
2	dihedral types

-300.0 300.0 xlo xhi
-300.0 300.0 ylo yhi
-300.0 300.0 zlo zhi

Masses

1	12.01	#ca
2	1.008	#ha
3	12.01	#c3
4	1.008	#hc

Pair Coeffs

1	0.0988	3.31521230994	#ca
2	0.0161	2.62547852236	#ha
3	0.1078	3.39770953124	#c3
4	0.0208	2.60017699876	#hc

Bond Coeffs

1	378.57	1.398	#ca-ca
2	395.72	1.086	#ca-ha
3	250.32	1.516	#c3-ca
4	375.92	1.097	#c3-hc

Angle Coeffs

1	68.767	120.02	#ca-ca-ca
2	48.68	119.88	#ca-ca-ha
3	65.583	120.77	#c3-ca-ca
4	47.281	110.47	#ca-c3-hc
5	38.96	107.58	#hc-c3-hc

Dihedral Coeffs

1	1	3.625	2	180.0	#X-ca-ca-X
2	1	0.0	2	180.0	#hc-c3-ca-ca




Atoms

1	1	1	-0.186881	-4.34	0.366	0.0
2	1	1	-0.141174	-3.45	1.425	-0.0
3	1	1	0.114233	-2.075	1.205	-0.0
4	1	2	0.122828	-3.826	2.434	-0.0
5	1	1	-0.095394	-3.872	-0.94	0.0
6	1	2	0.142331	-5.399	0.558	0.0
7	1	1	-0.186881	-2.508	-1.171	0.0
8	1	2	0.122026	-4.563	-1.764	0.0
9	1	1	-0.141174	-1.619	-0.106	-0.0
10	1	2	0.142331	-2.132	-2.179	0.0
11	1	2	0.122828	-0.56	-0.3	-0.0
12	1	3	-0.245712	-1.114	2.372	-0.0
13	1	4	0.07688	-0.084	2.034	0.0
14	1	4	0.07688	-1.258	2.998	0.875
15	1	4	0.07688	-1.258	2.998	-0.875


Bonds

1	1	1	2
2	1	1	5
3	2	1	6
4	1	2	3
5	2	2	4
6	1	3	9
7	3	3	12
8	1	5	7
9	2	5	8
10	1	7	9
11	2	7	10
12	2	9	11
13	4	12	13
14	4	12	14
15	4	12	15


Angles

1	1	5	1	2
2	2	6	1	2
3	2	6	1	5
4	1	3	2	1
5	2	4	2	1
6	2	4	2	3
7	1	9	3	2
8	3	12	3	2
9	3	12	3	9
10	1	7	5	1
11	2	8	5	1
12	2	8	5	7
13	1	7	9	3
14	1	9	7	5
15	2	10	7	5
16	2	10	7	9
17	2	11	9	3
18	2	11	9	7
19	4	13	12	3
20	4	14	12	3
21	5	14	12	13
22	4	15	12	3
23	5	15	12	13
24	5	15	12	14


Dihedrals

1	1	3	2	1	5
2	1	3	2	1	6
3	1	4	2	1	5
4	1	4	2	1	6
5	1	9	3	2	1
6	1	9	3	2	4
7	1	12	3	2	1
8	1	12	3	2	4
9	1	7	5	1	2
10	1	7	5	1	6
11	1	8	5	1	2
12	1	8	5	1	6
13	1	7	9	3	2
14	1	7	9	3	12
15	1	9	7	5	1
16	1	9	7	5	8
17	1	5	7	9	3
18	1	10	7	5	1
19	1	10	7	5	8
20	1	10	7	9	3
21	1	11	9	3	2
22	1	11	9	3	12
23	1	11	9	7	5
24	1	11	9	7	10
25	2	13	12	3	2
26	2	13	12	3	9
27	2	14	12	3	2
28	2	14	12	3	9
29	2	15	12	3	2
30	2	15	12	3	9
